 Gaussian 16, Revision C.01,
 Gaussian 16:  ES64L-G16RevC.01  3-Jul-2019

 ----------------------------------
 #p M062X/DEF2TZVP opt freq pop=NBO
 ----------------------------------

 -------------------------
 data_set_12-dimer-nBA_opt
 -------------------------
 Symbolic Z-matrix:
 Charge =  0 Multiplicity = 2

 SCF Done:  E(UM062X) =  -346.339029870     A.U. after   17 cycles
 SCF Done:  E(UM062X) =  -346.343479493     A.U. after   14 cycles
 SCF Done:  E(UM062X) =  -346.343832511     A.U. after   13 cycles
 SCF Done:  E(UM062X) =  -346.343863284     A.U. after   11 cycles
 SCF Done:  E(UM062X) =  -346.343864168     A.U. after    8 cycles
 SCF Done:  E(UM062X) =  -346.343864182     A.U. after    9 cycles
 Optimization completed.
    -- Stationary point found.
 Normal termination of Gaussian 16 at Tue Jan  7 16:49:06 2025.

 --------------------------------------------------------------------
 #P Geom=AllCheck Guess=TCheck SCRF=Check GenChk UM062X/def2TZVP Freq
 --------------------------------------------------------------------

 Structure from the checkpoint file:  "outputs/data_set_12-dimer-nBA_opt.chk"
 -------------------------
 data_set_12-dimer-nBA_opt
 -------------------------
 Charge =  0 Multiplicity = 2

                         Standard orientation:
 ---------------------------------------------------------------------
 Center     Atomic      Atomic             Coordinates (Angstroms)
 Number     Number       Type             X           Y           Z
 ---------------------------------------------------------------------
      1          6           0       -2.231871   -1.350332   -0.000222
      2          6           0       -1.936420    0.099409   -0.000087
      3          6           0       -0.611008    0.680165    0.000717
      4          8           0       -0.396719    1.872822    0.000053
      5          8           0        0.376037   -0.239886    0.000293
      6          6           0        1.705905    0.286611    0.000042
      7          6           0        2.658819   -0.883897   -0.000464
      8          1           0       -2.830527   -1.621551   -0.875290
      9          1           0       -2.830080   -1.621788    0.875096
     10          1           0       -1.321607   -1.943861   -0.000477
     11          1           0       -2.740051    0.822185   -0.000539
     12          1           0        1.835016    0.918945    0.879909
     13          1           0        1.834552    0.919327   -0.879619
     14          1           0        2.508845   -1.502283   -0.885155
     15          1           0        2.509291   -1.502678    0.884027
     16          1           0        3.687468   -0.523518   -0.000642
 ---------------------------------------------------------------------

 SCF Done:  E(UM062X) =  -346.343864182     A.U. after    1 cycles

 The electronic state is 2-A.
 Alpha  occ. eigenvalues --  -19.66336 -19.60687 -10.66096 -10.59046 -10.57586
 Alpha  occ. eigenvalues --  -10.54497 -10.53216  -1.22972  -1.13590  -0.90809
 Alpha  occ. eigenvalues --   -0.86292  -0.76999  -0.71444  -0.65105  -0.57860
 Alpha  occ. eigenvalues --   -0.57593  -0.56021  -0.51520  -0.50101  -0.48697
 Alpha  occ. eigenvalues --   -0.47249  -0.46388  -0.44618  -0.43201  -0.41876
 Alpha  occ. eigenvalues --   -0.37665  -0.35508  -0.28594
 Alpha virt. eigenvalues --    0.06797   0.08362   0.09006   0.11019   0.12367
 Alpha virt. eigenvalues --    0.13327   0.13770   0.14410   0.14549   0.16113
 Alpha virt. eigenvalues --    0.16655   0.18313   0.19825   0.21103   0.23290

  Beta  occ. eigenvalues --  -19.66283 -19.60350 -10.66181 -10.59048 -10.57023
  Beta  occ. eigenvalues --  -10.54548 -10.53216  -1.22659  -1.12856  -0.89264
  Beta  occ. eigenvalues --   -0.85682  -0.76258  -0.70543  -0.64772  -0.57287
  Beta  occ. eigenvalues --   -0.56905  -0.55288  -0.49657  -0.49333  -0.47650
  Beta  occ. eigenvalues --   -0.46853  -0.46325  -0.44292  -0.42229  -0.41774
  Beta  occ. eigenvalues --   -0.36205  -0.34785
  Beta virt. eigenvalues --   -0.06309   0.06508   0.08039   0.11031   0.11690
  Beta virt. eigenvalues --    0.12590   0.13121   0.13728   0.13750   0.14518
  Beta virt. eigenvalues --    0.15834   0.16763   0.18005   0.19548   0.21104

 Mulliken charges and spin densities:
               1          2
     1  C   -0.404229  -0.061231
     2  C   -0.178831   0.876237
     3  C    0.380781  -0.062206
     4  O   -0.362032   0.174549
     5  O   -0.291381   0.022226
     6  C   -0.091084  -0.001763
     7  C   -0.405520  -0.000309
     8  H    0.153963   0.039360
     9  H    0.153985   0.039459
    10  H    0.165106   0.001445
    11  H    0.176821  -0.030186
    12  H    0.140049   0.001184
    13  H    0.140067   0.001181
    14  H    0.141832   0.000086
    15  H    0.141828   0.000086
    16  H    0.138645  -0.000117
 Sum of Mulliken charges =   0.00000   1.00000

 Dipole moment (field-independent basis, Debye):
    X=             -0.1304    Y=             -2.4875    Z=              0.0001  Tot=              2.4910
 Quadrupole moment (field-independent basis, Debye-Ang):
   XX=            -34.5428   YY=            -49.1961   ZZ=            -42.5245
   XY=              2.2850   XZ=              0.0005   YZ=              0.0004

  Exact polarizability:      80.106       3.225      69.748       0.001       0.000      50.565
 Approx polarizability:      77.997       3.524      82.309       0.001      -0.004      63.305

 Summary of Natural Population Analysis:

                                       Natural Population
                Natural  -----------------------------------------------
    Atom  No    Charge         Core      Valence    Rydberg      Total
 -----------------------------------------------------------------------
      C    1   -0.36296      0.99975     2.35684    0.00636     3.36296
      C    2    0.38315      0.99965     1.61171    0.00549     2.61685
      C    3    0.31177      0.99967     1.67073    0.01783     2.68823
      O    4   -0.20994      0.99988     3.19526    0.01480     4.20994
      O    5   -0.24515      0.99987     3.23719    0.00809     4.24515
      C    6   -0.03743      0.99966     2.02801    0.00977     3.03743
      C    7   -0.30839      0.99975     2.30315    0.00549     3.30839
      H    8    0.13226      0.00000     0.36739    0.00035     0.36774
      H    9    0.13231      0.00000     0.36734    0.00035     0.36769
      H   10    0.11871      0.00000     0.38076    0.00054     0.38129
      H   11    0.08285      0.00000     0.41651    0.00063     0.41715
      H   12    0.09314      0.00000     0.40609    0.00077     0.40686
      H   13    0.09315      0.00000     0.40608    0.00077     0.40685
      H   14    0.10489      0.00000     0.39458    0.00053     0.39511
      H   15    0.10489      0.00000     0.39458    0.00053     0.39511
      H   16    0.10675      0.00000     0.39291    0.00034     0.39325
 =======================================================================
   * Total *    0.50000      6.99823    19.92915    0.07263    27.00000

                      1                      2                      3
                      A                      A                      A
 Frequencies --     41.6043                78.0282               115.9882
 Red. masses --      1.0311                 2.0548                 3.2516
 Frc consts  --      0.0011                 0.0074                 0.0258
 IR Inten    --      0.4329                 0.5127                 0.7318

                      4                      5                      6
                      A                      A                      A
 Frequencies --    152.3434               161.1769               259.7488
 Red. masses --      3.1120                 2.3774                 1.2535
 Frc consts  --      0.0426                 0.0364                 0.0498
 IR Inten    --      2.7119                 3.4038                 0.9825

                      7                      8                      9
                      A                      A                      A
 Frequencies --    298.7417               386.6892               534.2931
 Red. masses --      3.8877                 3.3937                 4.5360
 Frc consts  --      0.2044                 0.2990                 0.7629
 IR Inten    --      4.1080                 7.5981                 5.8177

                     10                     11                     12
                      A                      A                      A
 Frequencies --    593.6227               625.2504               745.2984
 Red. masses --      1.3287                 3.8373                 4.4782
 Frc consts  --      0.2759                 0.8839                 1.4656
 IR Inten    --      4.8646                 1.6539                25.2230

                     13                     14                     15
                      A                      A                      A
 Frequencies --    815.4023               887.5215               926.0315
 Red. masses --      1.1053                 2.8047                 1.9910
 Frc consts  --      0.4330                 1.3016                 1.0059
 IR Inten    --      0.0532                 7.9996                11.7126

                     16                     17                     18
                      A                      A                      A
 Frequencies --    986.8915              1025.8885              1128.5988
 Red. masses --      1.4017                 1.9607                 3.2699
 Frc consts  --      0.8043                 1.2158                 2.4540
 IR Inten    --      0.0021                30.1581               121.2266

                     19                     20                     21
                      A                      A                      A
 Frequencies --   1147.9226              1164.7851              1185.7405
 Red. masses --      2.4957                 2.3292                 1.5767
 Frc consts  --      1.9376                 1.8619                 1.3061
 IR Inten    --     40.5282                 3.0411                 3.8298

                     22                     23                     24
                      A                      A                      A
 Frequencies --   1307.4459              1308.4703              1385.9786
 Red. masses --      1.0894                 2.3020                 1.4128
 Frc consts  --      1.0972                 2.3221                 1.5990
 IR Inten    --      1.4187               344.1396                35.8728

                     25                     26                     27
                      A                      A                      A
 Frequencies --   1407.9172              1410.9534              1444.5802
 Red. masses --      1.3077                 1.5417                 1.7074
 Frc consts  --      1.5272                 1.8083                 2.0993
 IR Inten    --     22.8020                56.5245                 7.5835

                     28                     29                     30
                      A                      A                      A
 Frequencies --   1477.1764              1488.1600              1492.3383
 Red. masses --      1.0459                 1.0382                 1.1989
 Frc consts  --      1.3447                 1.3546                 1.5731
 IR Inten    --      8.6270                 6.1703                27.5109

                     31                     32                     33
                      A                      A                      A
 Frequencies --   1500.8928              1526.1371              1749.1448
 Red. masses --      1.0506                 1.0946                11.2159
 Frc consts  --      1.3944                 1.5021                20.2179
 IR Inten    --      3.4465                 5.0475               249.9969

                     34                     35                     36
                      A                      A                      A
 Frequencies --   3040.6242              3076.0130              3080.7654
 Red. masses --      1.0410                 1.0362                 1.0570
 Frc consts  --      5.6705                 5.7763                 5.9110
 IR Inten    --      9.1258                12.0446                14.1663

                     37                     38                     39
                      A                      A                      A
 Frequencies --   3082.4025              3118.5066              3153.9929
 Red. masses --      1.0973                 1.1076                 1.1019
 Frc consts  --      6.1428                 6.3464                 6.4581
 IR Inten    --      5.7291                 6.1172                16.3789

                     40                     41                     42
                      A                      A                      A
 Frequencies --   3156.2761              3176.6459              3231.1195
 Red. masses --      1.1044                 1.0963                 1.0884
 Frc consts  --      6.4825                 6.5182                 6.6951
 IR Inten    --     23.8038                 1.9308                 2.4692

 - Thermochemistry -
 -------------------
 Temperature   298.150 Kelvin.  Pressure   1.00000 Atm.
 Atom     1 has atomic number  6 and mass  12.00000

 Molecular mass:   101.06025 amu.
 Principal axes and moments of inertia in atomic units:
                           1         2         3
     Eigenvalues --   412.535321060.983651440.08485
           X            0.99984   0.01769   0.00003
           Y           -0.01769   0.99984  -0.00016
           Z           -0.00004   0.00016   1.00000
 This molecule is an asymmetric top.
 Rotational symmetry number  1.
 Rotational temperatures (Kelvin)      0.20996     0.08164     0.06015
 Rotational constants (GHZ):           4.37476     1.70101     1.25322
 Zero-point vibrational energy     352163.3 (Joules/Mol)
                                   84.16905 (Kcal/Mol)
 Warning -- explicit consideration of  10 degrees of freedom as
           vibrations may cause significant error
 Vibrational temperatures:     59.86   112.27   166.88   219.19   231.90
          (Kelvin)            373.72   429.82   556.36   768.73   854.09
                              899.60  1072.32  1173.18  1276.95  1332.35
                             1419.92  1476.02  1623.80  1651.60  1675.87
                             1706.02  1881.12  1882.60  1994.11  2025.68
                             2030.05  2078.43  2125.33  2141.13  2147.14
                             2159.45  2195.77  2516.63  4374.78  4425.70
                             4432.53  4434.89  4486.84  4537.89  4541.18
                             4570.48  4648.86

 Zero-point correction=                           0.134132 (Hartree/Particle)
 Thermal correction to Energy=                    0.142794
 Thermal correction to Enthalpy=                  0.143738
 Thermal correction to Gibbs Free Energy=         0.099377
 Sum of electronic and zero-point Energies=           -346.209732
 Sum of electronic and thermal Energies=              -346.201070
 Sum of electronic and thermal Enthalpies=            -346.200126
 Sum of electronic and thermal Free Energies=         -346.244487

                     E (Thermal)             CV                S
                      KCal/Mol        Cal/Mol-Kelvin    Cal/Mol-Kelvin
 Total                   89.604             28.894             93.366
 Electronic               0.000              0.000              1.377
 Translational            0.889              2.981             39.749
 Rotational               0.889              2.981             27.935
 Vibrational             87.827             22.932             24.304
 Vibration     1          0.594              1.981              5.181
 Vibration     2          0.599              1.964              3.940
 Vibration     3          0.608              1.936              3.166
 Vibration     4          0.619              1.900              2.643
 Vibration     5          0.622              1.890              2.536
 Vibration     6          0.668              1.746              1.663
 Vibration     7          0.692              1.676              1.424
 Vibration     8          0.755              1.499              1.013
 Vibration     9          0.889              1.174              0.578
 Vibration    10          0.951              1.045              0.461

 Optimization completed.
    -- Stationary point found.
 Normal termination of Gaussian 16 at Tue Jan  7 16:56:21 2025.
