 Gaussian 16, Revision C.01,
 Gaussian 16:  ES64L-G16RevC.01  3-Jul-2019

 ----------------------------------
 #p M062X/DEF2TZVP opt freq pop=NBO
 ----------------------------------

 -------------
 styrene_dimer
 -------------
 Symbolic Z-matrix:
 Charge =  0 Multiplicity = 2

 SCF Done:  E(UM062X) =  -619.843179804     A.U. after   23 cycles
 SCF Done:  E(UM062X) =  -619.846326788     A.U. after   17 cycles
 SCF Done:  E(UM062X) =  -619.846397612     A.U. after   20 cycles
 SCF Done:  E(UM062X) =  -619.846402498     A.U. after   17 cycles
 SCF Done:  E(UM062X) =  -619.846404826     A.U. after   22 cycles
 SCF Done:  E(UM062X) =  -619.846405116     A.U. after   17 cycles
 SCF Done:  E(UM062X) =  -619.846405104     A.U. after   18 cycles
 SCF Done:  E(UM062X) =  -619.846405071     A.U. after    7 cycles
 Optimization completed.
    -- Stationary point found.
 Normal termination of Gaussian 16 at Sun Feb 23 19:10:17 2025.

 --------------------------------------------------------------------
 #P Geom=AllCheck Guess=TCheck SCRF=Check GenChk UM062X/def2TZVP Freq
 --------------------------------------------------------------------

 Structure from the checkpoint file:  "styrene_dimer_doublet.chk"
 -------------
 styrene_dimer
 -------------
 Charge =  0 Multiplicity = 2

                         Standard orientation:
 ---------------------------------------------------------------------
 Center     Atomic      Atomic             Coordinates (Angstroms)
 Number     Number       Type             X           Y           Z
 ---------------------------------------------------------------------
      1          6           0        4.070616   -1.540527   -0.431703
      2          6           0        4.839850   -0.645593    0.310517
      3          6           0        4.261975    0.531946    0.774958
      4          6           0        2.937891    0.819667    0.505614
      5          6           0        2.139367   -0.071902   -0.246379
      6          6           0        2.748590   -1.262889   -0.705343
      7          6           0        0.781991    0.195439   -0.538553
      8          6           0       -1.378330    1.504560   -0.621411
      9          6           0       -2.202712    0.309909   -0.191553
     10          6           0       -2.361783   -0.001630    1.158102
     11          6           0       -3.125243   -1.089106    1.552678
     12          6           0       -3.746559   -1.888773    0.601527
     13          6           0       -3.596497   -1.590428   -0.743813
     14          6           0       -2.829708   -0.499140   -1.133286
     15          6           0       -2.035787    2.813258   -0.182463
     16          1           0        4.512806   -2.459422   -0.795126
     17          1           0        5.877249   -0.865268    0.524575
     18          1           0        4.853932    1.230011    1.353365
     19          1           0        2.504848    1.739749    0.876748
     20          1           0        2.153566   -1.961866   -1.281051
     21          1           0        0.228902   -0.545027   -1.104940
     22          1           0       -1.333797    1.492562   -1.714736
     23          1           0       -1.880653    0.611329    1.911779
     24          1           0       -3.234756   -1.315787    2.605527
     25          1           0       -4.341298   -2.738867    0.909164
     26          1           0       -4.074757   -2.207456   -1.493768
     27          1           0       -2.714532   -0.271531   -2.187093
     28          1           0       -2.089158    2.869599    0.906763
     29          1           0       -3.051361    2.889253   -0.571096
     30          1           0       -1.463658    3.672065   -0.537660
     31          6           0        0.062032    1.424278   -0.102322
     32          1           0        0.053843    1.488502    0.994771
     33          1           0        0.604649    2.317738   -0.436632
 ---------------------------------------------------------------------

 SCF Done:  E(UM062X) =  -619.846405071     A.U. after    1 cycles

 The electronic state is 2-A.
 Alpha  occ. eigenvalues --  -10.54789 -10.54688 -10.54634 -10.54472 -10.54087
 Alpha  occ. eigenvalues --  -10.54075 -10.54059 -10.53869 -10.53862 -10.53828
 Alpha  occ. eigenvalues --  -10.53768 -10.53767 -10.53697 -10.53645 -10.53578
 Alpha  occ. eigenvalues --  -10.52765  -0.97093  -0.96318  -0.91994  -0.87717
 Alpha  occ. eigenvalues --   -0.84349  -0.84254  -0.82958  -0.80430  -0.73388
 Alpha  occ. eigenvalues --   -0.70975  -0.68999  -0.68395  -0.65365  -0.63987
 Alpha  occ. eigenvalues --   -0.59143  -0.58756  -0.54829  -0.53860  -0.53048
 Alpha  occ. eigenvalues --   -0.51506  -0.50835  -0.50003  -0.48831  -0.48499
 Alpha  occ. eigenvalues --   -0.48371  -0.47503  -0.45623  -0.44306  -0.43845
 Alpha  occ. eigenvalues --   -0.43686  -0.42103  -0.41340  -0.39867  -0.38904
 Alpha  occ. eigenvalues --   -0.38879  -0.37992  -0.34145  -0.31237  -0.30893
 Alpha  occ. eigenvalues --   -0.29979  -0.21903
 Alpha virt. eigenvalues --    0.01940   0.02323   0.02595   0.04790   0.06698
 Alpha virt. eigenvalues --    0.08342   0.08804   0.09025   0.10404   0.11125
 Alpha virt. eigenvalues --    0.11896   0.12140   0.12448   0.13357   0.13859

  Beta  occ. eigenvalues --  -10.54787 -10.54635 -10.54606 -10.54196 -10.54130
  Beta  occ. eigenvalues --  -10.54075 -10.54059 -10.53867 -10.53861 -10.53828
  Beta  occ. eigenvalues --  -10.53789 -10.53709 -10.53612 -10.53596 -10.53503
  Beta  occ. eigenvalues --  -10.52766  -0.96993  -0.96008  -0.91670  -0.86981
  Beta  occ. eigenvalues --   -0.84341  -0.84035  -0.82892  -0.79981  -0.72555
  Beta  occ. eigenvalues --   -0.70741  -0.68968  -0.68231  -0.65103  -0.63478
  Beta  occ. eigenvalues --   -0.59042  -0.58285  -0.54603  -0.53504  -0.52824
  Beta  occ. eigenvalues --   -0.51352  -0.50558  -0.49810  -0.48742  -0.48386
  Beta  occ. eigenvalues --   -0.48230  -0.46634  -0.45325  -0.43796  -0.43647
  Beta  occ. eigenvalues --   -0.43211  -0.41875  -0.41238  -0.39653  -0.38763
  Beta  occ. eigenvalues --   -0.38742  -0.37894  -0.31493  -0.30884  -0.30385
  Beta  occ. eigenvalues --   -0.29945
  Beta virt. eigenvalues --   -0.04744   0.01968   0.02429   0.03058   0.06254
  Beta virt. eigenvalues --    0.07192   0.08141   0.08824   0.08930   0.10344
  Beta virt. eigenvalues --    0.10940   0.11733   0.12112   0.12464   0.13269

 Mulliken charges and spin densities:
               1          2
     1  C   -0.138714  -0.122556
     2  C   -0.157498   0.246854
     3  C   -0.144814  -0.122712
     4  C   -0.248819   0.239888
     5  C    0.208372  -0.197311
     6  C   -0.227255   0.212790
     7  C   -0.144563   0.781327
     8  C   -0.274573   0.017093
     9  C    0.143028   0.023172
    10  C   -0.200997  -0.017347
    11  C   -0.154877   0.004732
    12  C   -0.152964  -0.000975
    13  C   -0.136145   0.001073
    14  C   -0.167419  -0.004476
    15  C   -0.402693  -0.001906
    16  H    0.139920   0.001617
    17  H    0.141898  -0.006951
    18  H    0.139299   0.001848
    19  H    0.158017  -0.007897
    20  H    0.138138  -0.003918
    21  H    0.169988  -0.037075
    22  H    0.155752  -0.004478
    23  H    0.162585  -0.002655
    24  H    0.141413   0.000107
    25  H    0.141631  -0.000006
    26  H    0.141295   0.000040
    27  H    0.146675   0.000253
    28  H    0.141903  -0.000030
    29  H    0.154488  -0.000349
    30  H    0.144471  -0.000322
    31  C   -0.345078  -0.067394
    32  H    0.163831   0.035139
    33  H    0.163703   0.032423
 Sum of Mulliken charges =  -0.00000   1.00000

 Dipole moment (field-independent basis, Debye):
    X=             -0.4635    Y=              0.3651    Z=             -0.0531  Tot=              0.5924
 Quadrupole moment (field-independent basis, Debye-Ang):
   XX=            -95.6897   YY=            -91.9552   ZZ=            -93.9716
   XY=              2.1063   XZ=              2.2708   YZ=              2.8397

  Exact polarizability:     230.837       5.361     176.773      11.717       9.236     148.860
 Approx polarizability:     247.338      11.599     228.115      17.571      16.357     215.421

 Summary of Natural Population Analysis:

                                       Natural Population
                Natural  -----------------------------------------------
    Atom  No    Charge         Core      Valence    Rydberg      Total
 -----------------------------------------------------------------------
      C    1   -0.14347      0.99961     2.13451    0.00935     3.14347
      C    2   -0.01055      0.99961     2.00217    0.00876     3.01055
      C    3   -0.14106      0.99962     2.13209    0.00936     3.14106
      C    4   -0.00822      0.99958     2.00033    0.00831     3.00822
      C    5   -0.12942      0.99958     2.11961    0.01023     3.12942
      C    6   -0.00306      0.99958     1.99480    0.00867     3.00306
      C    7    0.33677      0.99963     1.65579    0.00781     2.66323
      C    8   -0.11203      0.99969     2.10463    0.00770     3.11203
      C    9   -0.00488      0.99955     1.99370    0.01162     3.00488
      C   10   -0.10907      0.99955     2.10067    0.00885     3.10907
      C   11   -0.09937      0.99962     2.09073    0.00903     3.09937
      C   12   -0.10922      0.99961     2.10049    0.00911     3.10922
      C   13   -0.10130      0.99961     2.09245    0.00923     3.10130
      C   14   -0.10810      0.99956     2.09941    0.00913     3.10810
      C   15   -0.29302      0.99974     2.28793    0.00536     3.29302
      H   16    0.10726      0.00000     0.39219    0.00054     0.39274
      H   17    0.10213      0.00000     0.39736    0.00051     0.39787
      H   18    0.10678      0.00000     0.39266    0.00055     0.39322
      H   19    0.10065      0.00000     0.39874    0.00061     0.39935
      H   20    0.10103      0.00000     0.39836    0.00061     0.39897
      H   21    0.08272      0.00000     0.41643    0.00085     0.41728
      H   22    0.10036      0.00000     0.39842    0.00122     0.39964
      H   23    0.10336      0.00000     0.39585    0.00079     0.39664
      H   24    0.10629      0.00000     0.39316    0.00054     0.39371
      H   25    0.10657      0.00000     0.39293    0.00050     0.39343
      H   26    0.10633      0.00000     0.39315    0.00053     0.39367
      H   27    0.10454      0.00000     0.39485    0.00061     0.39546
      H   28    0.10067      0.00000     0.39879    0.00054     0.39933
      H   29    0.10679      0.00000     0.39278    0.00044     0.39321
      H   30    0.10308      0.00000     0.39645    0.00048     0.39692
      C   31   -0.24601      0.99970     2.23896    0.00735     3.24601
      H   32    0.12111      0.00000     0.37815    0.00074     0.37889
      H   33    0.12233      0.00000     0.37701    0.00066     0.37767
 =======================================================================
   * Total *    0.50000     15.99385    39.85554    0.15061    56.00000

                      1                      2                      3
                      A                      A                      A
 Frequencies --     21.8947                24.3653                41.8952
 Red. masses --      4.3098                 3.7400                 4.0390
 Frc consts  --      0.0012                 0.0013                 0.0042
 IR Inten    --      0.0145                 0.0044                 0.0291

                      4                      5                      6
                      A                      A                      A
 Frequencies --     88.5660               110.7184               165.2770
 Red. masses --      3.8150                 3.9404                 3.1981
 Frc consts  --      0.0176                 0.0285                 0.0515
 IR Inten    --      0.1951                 0.2278                 0.9502

                      7                      8                      9
                      A                      A                      A
 Frequencies --    207.3096               221.0181               249.3781
 Red. masses --      4.2001                 1.9348                 1.4886
 Frc consts  --      0.1064                 0.0557                 0.0545
 IR Inten    --      0.1165                 0.4907                 0.2296

                     10                     11                     12
                      A                      A                      A
 Frequencies --    255.4671               267.7592               361.4189
 Red. masses --      1.9347                 2.9927                 3.8699
 Frc consts  --      0.0744                 0.1264                 0.2978
 IR Inten    --      0.0832                 0.0334                 0.5323

                     13                     14                     15
                      A                      A                      A
 Frequencies --    407.8674               414.6999               415.6184
 Red. masses --      3.9566                 2.9029                 2.9047
 Frc consts  --      0.3878                 0.2941                 0.2956
 IR Inten    --      0.4374                 0.7335                 0.2248

                     16                     17                     18
                      A                      A                      A
 Frequencies --    479.6238               514.9431               550.2084
 Red. masses --      2.2545                 3.1389                 2.7580
 Frc consts  --      0.3056                 0.4904                 0.4919
 IR Inten    --     15.8200                 2.0798                10.1910

                     19                     20                     21
                      A                      A                      A
 Frequencies --    561.7074               606.2792               620.5050
 Red. masses --      2.7649                 3.9530                 1.7157
 Frc consts  --      0.5140                 0.8561                 0.3892
 IR Inten    --      6.6258                 1.7685                 5.0682

                     22                     23                     24
                      A                      A                      A
 Frequencies --    628.5411               634.8994               701.6247
 Red. masses --      6.2517                 5.9102                 1.6140
 Frc consts  --      1.4552                 1.4037                 0.4681
 IR Inten    --      0.2029                 0.1343                36.0202

                     25                     26                     27
                      A                      A                      A
 Frequencies --    724.2987               764.1404               780.9307
 Red. masses --      1.6360                 3.3464                 2.0692
 Frc consts  --      0.5057                 1.1513                 0.7435
 IR Inten    --     46.9996                 7.1635                37.2873

                     28                     29                     30
                      A                      A                      A
 Frequencies --    792.8305               850.7402               858.7169
 Red. masses --      1.9886                 1.2634                 4.3002
 Frc consts  --      0.7365                 0.5387                 1.8683
 IR Inten    --     24.9003                 0.3379                 1.1836

                     31                     32                     33
                      A                      A                      A
 Frequencies --    874.0582               900.7127               921.5068
 Red. masses --      1.2613                 1.4807                 1.4704
 Frc consts  --      0.5677                 0.7077                 0.7357
 IR Inten    --      0.0468                 1.1375                 2.4156

                     34                     35                     36
                      A                      A                      A
 Frequencies --    941.9377               949.0926               986.6655
 Red. masses --      1.5207                 1.7658                 1.3522
 Frc consts  --      0.7949                 0.9371                 0.7756
 IR Inten    --      3.6547                 0.2991                 0.0533

                     37                     38                     39
                      A                      A                      A
 Frequencies --    996.1166              1001.7301              1002.8002
 Red. masses --      1.3679                 5.0139                 1.3079
 Frc consts  --      0.7997                 2.9643                 0.7749
 IR Inten    --      0.0355                 2.0429                 0.0363

                     40                     41                     42
                      A                      A                      A
 Frequencies --   1014.6011              1022.3677              1027.5152
 Red. masses --      1.3002                 5.5101                 1.9333
 Frc consts  --      0.7886                 3.3933                 1.2026
 IR Inten    --      0.1310                 0.1963                 6.6038

                     43                     44                     45
                      A                      A                      A
 Frequencies --   1054.9010              1065.8321              1083.0303
 Red. masses --      2.2037                 2.0964                 2.4709
 Frc consts  --      1.4449                 1.4032                 1.7076
 IR Inten    --      4.3758                 2.7429                 1.3545

                     46                     47                     48
                      A                      A                      A
 Frequencies --   1102.0474              1118.2041              1129.4021
 Red. masses --      1.8408                 1.5477                 1.8234
 Frc consts  --      1.3172                 1.1402                 1.3703
 IR Inten    --      5.5797                 3.0135                 8.7421

                     49                     50                     51
                      A                      A                      A
 Frequencies --   1144.2151              1172.0943              1176.4654
 Red. masses --      1.9703                 1.1649                 1.1573
 Frc consts  --      1.5199                 0.9429                 0.9437
 IR Inten    --      5.0001                 0.2838                 0.1603

                     52                     53                     54
                      A                      A                      A
 Frequencies --   1189.1489              1204.1297              1208.9582
 Red. masses --      1.2434                 1.2440                 1.1606
 Frc consts  --      1.0359                 1.0627                 0.9994
 IR Inten    --      0.1072                 1.0114                 1.3527

                     55                     56                     57
                      A                      A                      A
 Frequencies --   1232.2957              1250.8726              1291.1700
 Red. masses --      1.7714                 1.7571                 1.6021
 Frc consts  --      1.5849                 1.6199                 1.5736
 IR Inten    --      0.4344                 0.1805                 6.2390

                     58                     59                     60
                      A                      A                      A
 Frequencies --   1315.6580              1324.0741              1349.4213
 Red. masses --      3.5785                 2.8200                 1.6659
 Frc consts  --      3.6495                 2.9129                 1.7873
 IR Inten    --      3.1448                 2.3594                 2.8076

                     61                     62                     63
                      A                      A                      A
 Frequencies --   1351.0724              1362.2232              1392.1768
 Red. masses --      1.5804                 1.4863                 1.4158
 Frc consts  --      1.6997                 1.6250                 1.6167
 IR Inten    --      0.1668                 0.6294                 3.6269

                     64                     65                     66
                      A                      A                      A
 Frequencies --   1406.9754              1443.3380              1468.2569
 Red. masses --      1.2514                 2.0873                 1.0838
 Frc consts  --      1.4595                 2.5619                 1.3766
 IR Inten    --      5.4587                 1.7780                 4.6622

                     67                     68                     69
                      A                      A                      A
 Frequencies --   1495.1936              1498.0953              1500.2599
 Red. masses --      1.1795                 1.1748                 1.6130
 Frc consts  --      1.5536                 1.5534                 2.1390
 IR Inten    --     11.2356                 2.7066                 7.1216

                     70                     71                     72
                      A                      A                      A
 Frequencies --   1501.2768              1517.0537              1544.1604
 Red. masses --      2.2053                 2.2099                 2.3640
 Frc consts  --      2.9284                 2.9966                 3.3211
 IR Inten    --      4.4365                14.5709                12.0343

                     73                     74                     75
                      A                      A                      A
 Frequencies --   1617.6985              1634.1037              1658.8235
 Red. masses --      4.9504                 5.2924                 5.9180
 Frc consts  --      7.6329                 8.3265                 9.5946
 IR Inten    --      2.6491                 2.3496                 1.1621

                     76                     77                     78
                      A                      A                      A
 Frequencies --   1679.3407              3004.5301              3030.6234
 Red. masses --      6.0271                 1.0622                 1.0939
 Frc consts  --     10.0147                 5.6494                 5.9195
 IR Inten    --      6.7913                11.5765                12.5663

                     79                     80                     81
                      A                      A                      A
 Frequencies --   3058.6237              3061.3572              3129.7016
 Red. masses --      1.0551                 1.0649                 1.1019
 Frc consts  --      5.8158                 5.8802                 6.3593
 IR Inten    --     19.6698                21.8404                26.6613

                     82                     83                     84
                      A                      A                      A
 Frequencies --   3142.5250              3184.7670              3190.4274
 Red. masses --      1.1024                 1.0871                 1.0876
 Frc consts  --      6.4143                 6.4962                 6.5223
 IR Inten    --     20.8489                 3.8745                 6.6597

                     85                     86                     87
                      A                      A                      A
 Frequencies --   3193.5552              3196.5400              3202.4739
 Red. masses --      1.0876                 1.0862                 1.0868
 Frc consts  --      6.5355                 6.5392                 6.5669
 IR Inten    --      3.7106                 5.0456                 1.1901

                     88                     89                     90
                      A                      A                      A
 Frequencies --   3207.7262              3212.7214              3216.4611
 Red. masses --      1.0894                 1.0913                 1.0940
 Frc consts  --      6.6041                 6.6366                 6.6681
 IR Inten    --      2.0063                 7.0166                16.3012

                     91                     92                     93
                      A                      A                      A
 Frequencies --   3219.6989              3228.7146              3229.3208
 Red. masses --      1.0937                 1.0982                 1.0979
 Frc consts  --      6.6801                 6.7454                 6.7459
 IR Inten    --     17.8215                10.9040                 8.2866

 - Thermochemistry -
 -------------------
 Temperature   298.150 Kelvin.  Pressure   1.00000 Atm.
 Atom     1 has atomic number  6 and mass  12.00000

 Molecular mass:   209.13303 amu.
 Principal axes and moments of inertia in atomic units:
                           1         2         3
     Eigenvalues --  1800.502917091.451657954.59396
           X            0.99999  -0.00424   0.00225
           Y            0.00420   0.99987   0.01568
           Z           -0.00232  -0.01567   0.99987
 This molecule is an asymmetric top.
 Rotational symmetry number  1.
 Warning -- assumption of classical behavior for rotation
           may cause significant error
 Rotational temperatures (Kelvin)      0.04811     0.01221     0.01089
 Rotational constants (GHZ):           1.00235     0.25450     0.22688
 Zero-point vibrational energy     742606.3 (Joules/Mol)
                                  177.48717 (Kcal/Mol)
 Warning -- explicit consideration of  21 degrees of freedom as
           vibrations may cause significant error
 Vibrational temperatures:     31.50    35.06    60.28   127.43   159.30
          (Kelvin)            237.80   298.27   318.00   358.80   367.56
                              385.25   520.00   586.83   596.66   597.98
                              690.07   740.89   791.63   808.17   872.30
                              892.77   904.33   913.48  1009.48  1042.10
                             1099.43  1123.59  1140.71  1224.03  1235.50
                             1257.57  1295.92  1325.84  1355.24  1365.53
                             1419.59  1433.19  1441.27  1442.81  1459.78
                             1470.96  1478.37  1517.77  1533.49  1558.24
                             1585.60  1608.85  1624.96  1646.27  1686.38
                             1692.67  1710.92  1732.47  1739.42  1773.00
                             1799.73  1857.71  1892.94  1905.05  1941.52
                             1943.89  1959.94  2003.03  2024.32  2076.64
                             2112.49  2151.25  2155.43  2158.54  2160.00
                             2182.70  2221.70  2327.51  2351.11  2386.68
                             2416.20  4322.85  4360.39  4400.68  4404.61
                             4502.94  4521.39  4582.17  4590.31  4594.81
                             4599.11  4607.65  4615.20  4622.39  4627.77
                             4632.43  4645.40  4646.27

 Zero-point correction=                           0.282844 (Hartree/Particle)
 Thermal correction to Energy=                    0.297084
 Thermal correction to Enthalpy=                  0.298028
 Thermal correction to Gibbs Free Energy=         0.238892
 Sum of electronic and zero-point Energies=           -619.563561
 Sum of electronic and thermal Energies=              -619.549321
 Sum of electronic and thermal Enthalpies=            -619.548377
 Sum of electronic and thermal Free Energies=         -619.607513

                     E (Thermal)             CV                S
                      KCal/Mol        Cal/Mol-Kelvin    Cal/Mol-Kelvin
 Total                  186.423             56.125            124.463
 Electronic               0.000              0.000              1.377
 Translational            0.889              2.981             41.917
 Rotational               0.889              2.981             32.985
 Vibrational            184.646             50.164             48.183
 Vibration     1          0.593              1.985              6.454
 Vibration     2          0.593              1.985              6.242
 Vibration     3          0.595              1.980              5.167
 Vibration     4          0.601              1.957              3.691
 Vibration     5          0.607              1.941              3.256
 Vibration     6          0.624              1.885              2.489
 Vibration     7          0.641              1.829              2.067
 Vibration     8          0.648              1.809              1.951
 Vibration     9          0.662              1.764              1.735
 Vibration    10          0.666              1.754              1.693
 Vibration    11          0.673              1.732              1.611
 Vibration    12          0.736              1.552              1.116
 Vibration    13          0.772              1.453              0.934
 Vibration    14          0.778              1.438              0.910
 Vibration    15          0.779              1.436              0.907
 Vibration    16          0.836              1.295              0.711
 Vibration    17          0.870              1.217              0.622
 Vibration    18          0.905              1.139              0.544
 Vibration    19          0.917              1.114              0.520
 Vibration    20          0.965              1.018              0.439
 Vibration    21          0.981              0.989              0.416

                           ! Non-Optimized Parameters !
 Normal termination of Gaussian 16 at Sun Feb 23 19:52:18 2025.
