 Gaussian 16, Revision C.01,
 Gaussian 16:  ES64L-G16RevC.01  3-Jul-2019

 ----------------------------------
 #p M062X/DEF2TZVP opt freq pop=NBO
 ----------------------------------

 -----------------------
 data_set_12-catalyst-24
 -----------------------
 Symbolic Z-matrix:
 Charge =  0 Multiplicity = 2

 SCF Done:  E(UM062X) =  -483.670649929     A.U. after   17 cycles
 SCF Done:  E(UM062X) =  -483.674919501     A.U. after   12 cycles
 SCF Done:  E(UM062X) =  -483.674929926     A.U. after   13 cycles
 SCF Done:  E(UM062X) =  -483.675174442     A.U. after   11 cycles
 SCF Done:  E(UM062X) =  -483.675187599     A.U. after    9 cycles
 SCF Done:  E(UM062X) =  -483.675188681     A.U. after    8 cycles
 SCF Done:  E(UM062X) =  -483.675188942     A.U. after    8 cycles
 Optimization completed.
    -- Stationary point found.
 Normal termination of Gaussian 16 at Tue Jan  7 17:15:15 2025.

 --------------------------------------------------------------------
 #P Geom=AllCheck Guess=TCheck SCRF=Check GenChk UM062X/def2TZVP Freq
 --------------------------------------------------------------------

 Structure from the checkpoint file:  "outputs/data_set_12-catalyst-24.chk"
 -----------------------
 data_set_12-catalyst-24
 -----------------------
 Charge =  0 Multiplicity = 2

                         Standard orientation:
 ---------------------------------------------------------------------
 Center     Atomic      Atomic             Coordinates (Angstroms)
 Number     Number       Type             X           Y           Z
 ---------------------------------------------------------------------
      1          8           0       -0.000000   -2.003972   -0.094515
      2          7           0       -0.000000   -0.743114   -0.223009
      3          6           0       -1.314205   -0.070960   -0.025916
      4          6           0       -1.237797    1.380383   -0.504091
      5          6           0        0.000000    2.112040   -0.008274
      6          6           0        1.237797    1.380383   -0.504091
      7          6           0        1.314205   -0.070960   -0.025916
      8          6           0       -2.340908   -0.830119   -0.861360
      9          6           0       -1.706559   -0.156880    1.453237
     10          6           0        1.706559   -0.156880    1.453237
     11          6           0        2.340908   -0.830119   -0.861360
     12          1           0       -2.152077    1.886205   -0.185574
     13          1           0       -1.232972    1.386517   -1.598631
     14          1           0        0.000000    2.179363    1.082288
     15          1           0        0.000000    3.137527   -0.381238
     16          1           0        2.152078    1.886204   -0.185574
     17          1           0        1.232973    1.386516   -1.598631
     18          1           0       -2.465634   -1.845724   -0.493017
     19          1           0       -2.022845   -0.876563   -1.903432
     20          1           0       -3.298434   -0.309468   -0.809124
     21          1           0       -1.094796    0.487550    2.083097
     22          1           0       -1.599829   -1.185889    1.796678
     23          1           0       -2.748480    0.145053    1.571669
     24          1           0        2.748479    0.145053    1.571670
     25          1           0        1.599828   -1.185889    1.796679
     26          1           0        1.094795    0.487550    2.083097
     27          1           0        2.022845   -0.876563   -1.903431
     28          1           0        2.465634   -1.845724   -0.493016
     29          1           0        3.298435   -0.309469   -0.809124
 ---------------------------------------------------------------------

 SCF Done:  E(UM062X) =  -483.675188942     A.U. after    1 cycles

 The electronic state is 2-A.
 Alpha  occ. eigenvalues --  -19.61744 -14.82890 -10.58285 -10.58283 -10.53911
 Alpha  occ. eigenvalues --  -10.53868 -10.53851 -10.52647 -10.52647 -10.52039
 Alpha  occ. eigenvalues --  -10.52039  -1.22251  -0.97871  -0.92479  -0.87231
 Alpha  occ. eigenvalues --   -0.81612  -0.78995  -0.77983  -0.77570  -0.69268
 Alpha  occ. eigenvalues --   -0.68198  -0.60066  -0.56696  -0.55960  -0.55585
 Alpha  occ. eigenvalues --   -0.53789  -0.51448  -0.49861  -0.49683  -0.47652
 Alpha  occ. eigenvalues --   -0.47273  -0.45767  -0.45647  -0.44101  -0.43594
 Alpha  occ. eigenvalues --   -0.43260  -0.42095  -0.41550  -0.39466  -0.38823
 Alpha  occ. eigenvalues --   -0.38659  -0.37134  -0.32724  -0.25594
 Alpha virt. eigenvalues --    0.05577   0.08224   0.08266   0.09013   0.09812
 Alpha virt. eigenvalues --    0.12204   0.12486   0.13522   0.13654   0.13822
 Alpha virt. eigenvalues --    0.14311   0.15705   0.15860   0.16053   0.17087

  Beta  occ. eigenvalues --  -19.60677 -14.82110 -10.58312 -10.58311 -10.53912
  Beta  occ. eigenvalues --  -10.53866 -10.53849 -10.52613 -10.52612 -10.52027
  Beta  occ. eigenvalues --  -10.52027  -1.19363  -0.96783  -0.92306  -0.86604
  Beta  occ. eigenvalues --   -0.79959  -0.78799  -0.77878  -0.77538  -0.69024
  Beta  occ. eigenvalues --   -0.67646  -0.59154  -0.55801  -0.55647  -0.53862
  Beta  occ. eigenvalues --   -0.51658  -0.51369  -0.49636  -0.49317  -0.46957
  Beta  occ. eigenvalues --   -0.46748  -0.45487  -0.45302  -0.43365  -0.43117
  Beta  occ. eigenvalues --   -0.42917  -0.41506  -0.40239  -0.39310  -0.38640
  Beta  occ. eigenvalues --   -0.37030  -0.36187  -0.31101
  Beta virt. eigenvalues --   -0.00524   0.05612   0.08184   0.08239   0.09003
  Beta virt. eigenvalues --    0.09850   0.12072   0.12506   0.13501   0.13728
  Beta virt. eigenvalues --    0.13768   0.14770   0.15709   0.15834   0.16077

 Mulliken charges and spin densities:
               1          2
     1  O   -0.388552   0.525718
     2  N    0.197539   0.439832
     3  C    0.019095  -0.002357
     4  C   -0.313101   0.014193
     5  C   -0.292030  -0.010616
     6  C   -0.313101   0.014193
     7  C    0.019095  -0.002357
     8  C   -0.423002  -0.009019
     9  C   -0.449474   0.027246
    10  C   -0.449474   0.027246
    11  C   -0.423002  -0.009019
    12  H    0.160157  -0.000992
    13  H    0.165080  -0.004643
    14  H    0.162232  -0.000660
    15  H    0.152270   0.000357
    16  H    0.160157  -0.000992
    17  H    0.165080  -0.004643
    18  H    0.174292   0.000220
    19  H    0.148795   0.001438
    20  H    0.137372  -0.001212
    21  H    0.129502  -0.000222
    22  H    0.184734  -0.003407
    23  H    0.150821   0.001441
    24  H    0.150821   0.001441
    25  H    0.184734  -0.003407
    26  H    0.129502  -0.000222
    27  H    0.148795   0.001438
    28  H    0.174292   0.000220
    29  H    0.137372  -0.001212
 Sum of Mulliken charges =  -0.00000   1.00000

 Dipole moment (field-independent basis, Debye):
    X=              0.0000    Y=              3.0930    Z=              0.2247  Tot=              3.1011
 Quadrupole moment (field-independent basis, Debye-Ang):
   XX=            -66.9825   YY=            -76.0970   ZZ=            -69.8720
   XY=             -0.0000   XZ=             -0.0000   YZ=             -0.7722

  Exact polarizability:     122.282       0.000     113.155      -0.000       0.055     103.330
 Approx polarizability:     136.035       0.000     141.034      -0.000      -0.122     130.415

 Summary of Natural Population Analysis:

                                       Natural Population
                Natural  -----------------------------------------------
    Atom  No    Charge         Core      Valence    Rydberg      Total
 -----------------------------------------------------------------------
      O    1    0.04608      0.99993     2.94872    0.00527     3.95392
      N    2    0.24647      0.99970     2.23336    0.02046     3.25353
      C    3    0.03958      0.99966     1.95192    0.00884     2.96042
      C    4   -0.19969      0.99968     2.19244    0.00757     3.19969
      C    5   -0.20020      0.99972     2.19406    0.00641     3.20020
      C    6   -0.19969      0.99968     2.19244    0.00757     3.19969
      C    7    0.03958      0.99966     1.95192    0.00884     2.96042
      C    8   -0.29427      0.99970     2.28791    0.00666     3.29427
      C    9   -0.29458      0.99969     2.28842    0.00647     3.29458
      C   10   -0.29458      0.99969     2.28842    0.00647     3.29458
      C   11   -0.29427      0.99970     2.28791    0.00666     3.29427
      H   12    0.10646      0.00000     0.39297    0.00057     0.39354
      H   13    0.10104      0.00000     0.39824    0.00072     0.39896
      H   14    0.09862      0.00000     0.40065    0.00072     0.40138
      H   15    0.10797      0.00000     0.39146    0.00058     0.39203
      H   16    0.10646      0.00000     0.39297    0.00057     0.39354
      H   17    0.10104      0.00000     0.39824    0.00072     0.39896
      H   18    0.11510      0.00000     0.38433    0.00058     0.38490
      H   19    0.10597      0.00000     0.39351    0.00052     0.39403
      H   20    0.10120      0.00000     0.39836    0.00044     0.39880
      H   21    0.10066      0.00000     0.39875    0.00058     0.39934
      H   22    0.11340      0.00000     0.38605    0.00055     0.38660
      H   23    0.10566      0.00000     0.39387    0.00047     0.39434
      H   24    0.10566      0.00000     0.39387    0.00047     0.39434
      H   25    0.11340      0.00000     0.38605    0.00055     0.38660
      H   26    0.10066      0.00000     0.39875    0.00058     0.39934
      H   27    0.10597      0.00000     0.39351    0.00052     0.39403
      H   28    0.11510      0.00000     0.38433    0.00058     0.38490
      H   29    0.10120      0.00000     0.39836    0.00044     0.39880
 =======================================================================
   * Total *    0.50000     10.99682    31.90179    0.10138    43.00000

                      1                      2                      3
                      A                      A                      A
 Frequencies --     85.7370               133.1318               198.3897
 Red. masses --      4.0995                 2.4527                 1.0604
 Frc consts  --      0.0178                 0.0256                 0.0246
 IR Inten    --      2.8483                 0.0503                 0.0298

                      4                      5                      6
                      A                      A                      A
 Frequencies --    206.0141               245.7821               262.0546
 Red. masses --      2.7724                 1.1325                 1.0498
 Frc consts  --      0.0693                 0.0403                 0.0425
 IR Inten    --      1.2887                 0.3727                 0.0928

                      7                      8                      9
                      A                      A                      A
 Frequencies --    282.1060               295.8814               303.0298
 Red. masses --      1.4053                 2.0764                 2.1977
 Frc consts  --      0.0659                 0.1071                 0.1189
 IR Inten    --      0.5589                 0.0484                 0.0043

                     10                     11                     12
                      A                      A                      A
 Frequencies --    313.4558               331.2974               337.8096
 Red. masses --      2.6963                 1.7756                 2.7711
 Frc consts  --      0.1561                 0.1148                 0.1863
 IR Inten    --      0.5803                 0.5975                 0.8761

                     13                     14                     15
                      A                      A                      A
 Frequencies --    391.5087               411.4790               411.7786
 Red. masses --      3.2859                 2.5443                 1.7931
 Frc consts  --      0.2968                 0.2538                 0.1791
 IR Inten    --      8.1148                 2.0413                 0.6797

                     16                     17                     18
                      A                      A                      A
 Frequencies --    459.7906               475.7337               549.0519
 Red. masses --      3.1167                 3.1170                 3.2992
 Frc consts  --      0.3882                 0.4156                 0.5860
 IR Inten    --      0.7359                 1.2649                 9.1199

                     19                     20                     21
                      A                      A                      A
 Frequencies --    573.5884               584.6951               657.3882
 Red. masses --      4.1026                 2.0155                 3.4381
 Frc consts  --      0.7953                 0.4060                 0.8754
 IR Inten    --      7.2446                 0.5983                 2.2237

                     22                     23                     24
                      A                      A                      A
 Frequencies --    810.0945               821.4125               876.3396
 Red. masses --      2.5286                 2.1779                 1.4974
 Frc consts  --      0.9777                 0.8658                 0.6775
 IR Inten    --      0.1631                 2.8043                 1.7979

                     25                     26                     27
                      A                      A                      A
 Frequencies --    901.4247               946.9900               954.2445
 Red. masses --      2.3190                 1.8942                 1.6294
 Frc consts  --      1.1102                 1.0008                 0.8742
 IR Inten    --      0.0044                 0.0910                 1.0924

                     28                     29                     30
                      A                      A                      A
 Frequencies --    954.8657               979.2551               999.2962
 Red. masses --      1.4601                 1.5615                 1.6393
 Frc consts  --      0.7844                 0.8822                 0.9645
 IR Inten    --      0.8501                 4.5902                 6.8862

                     31                     32                     33
                      A                      A                      A
 Frequencies --   1017.1403              1017.2864              1069.0225
 Red. masses --      1.2929                 1.4473                 1.5902
 Frc consts  --      0.7881                 0.8825                 1.0707
 IR Inten    --      0.3834                 1.2123                 0.8948

                     34                     35                     36
                      A                      A                      A
 Frequencies --   1083.5537              1085.9299              1116.3111
 Red. masses --      2.0465                 1.6612                 1.4051
 Frc consts  --      1.4157                 1.1542                 1.0316
 IR Inten    --      0.0029                 2.9076                 2.8356

                     37                     38                     39
                      A                      A                      A
 Frequencies --   1174.7161              1213.9657              1239.2642
 Red. masses --      2.1373                 2.3059                 3.1476
 Frc consts  --      1.7377                 2.0021                 2.8481
 IR Inten    --     14.5038                 4.7618                 5.3886

                     40                     41                     42
                      A                      A                      A
 Frequencies --   1252.3584              1271.8333              1289.3330
 Red. masses --      2.0073                 1.9891                 2.6497
 Frc consts  --      1.8549                 1.8957                 2.5953
 IR Inten    --      1.3718                 2.2262                18.3591

                     43                     44                     45
                      A                      A                      A
 Frequencies --   1304.4021              1330.5662              1376.0316
 Red. masses --      2.1391                 1.3131                 1.5129
 Frc consts  --      2.1443                 1.3697                 1.6878
 IR Inten    --     15.6834                 1.4600                 0.5204

                     46                     47                     48
                      A                      A                      A
 Frequencies --   1388.4552              1390.7969              1397.3606
 Red. masses --      1.4405                 1.2701                 1.5737
 Frc consts  --      1.6361                 1.4475                 1.8105
 IR Inten    --     15.7301                 0.1787                 1.8253

                     49                     50                     51
                      A                      A                      A
 Frequencies --   1400.0090              1414.0389              1415.9325
 Red. masses --      1.4637                 1.2403                 1.3352
 Frc consts  --      1.6903                 1.4612                 1.5771
 IR Inten    --     21.8100                13.8711                 3.7292

                     52                     53                     54
                      A                      A                      A
 Frequencies --   1471.2092              1475.6860              1478.0549
 Red. masses --      1.0561                 3.8232                 1.1228
 Frc consts  --      1.3468                 4.9053                 1.4452
 IR Inten    --      1.9420                 0.9879                 0.9135

                     55                     56                     57
                      A                      A                      A
 Frequencies --   1482.0692              1488.5708              1490.5150
 Red. masses --      1.0689                 1.1018                 1.0593
 Frc consts  --      1.3833                 1.4385                 1.3865
 IR Inten    --      0.4970                 4.4133                 1.3653

                     58                     59                     60
                      A                      A                      A
 Frequencies --   1495.4912              1498.9987              1503.0860
 Red. masses --      1.0763                 1.0598                 1.1248
 Frc consts  --      1.4183                 1.4030                 1.4973
 IR Inten    --      1.3164                 9.5219                 3.5843

                     61                     62                     63
                      A                      A                      A
 Frequencies --   1509.7491              1511.1419              1521.1656
 Red. masses --      1.0581                 1.0873                 1.0907
 Frc consts  --      1.4210                 1.4629                 1.4870
 IR Inten    --     10.4732                16.1612                 4.0641

                     64                     65                     66
                      A                      A                      A
 Frequencies --   3052.4984              3053.6782              3067.1109
 Red. masses --      1.0621                 1.0632                 1.0351
 Frc consts  --      5.8308                 5.8411                 5.7369
 IR Inten    --     10.1748                22.7948                 0.6471

                     67                     68                     69
                      A                      A                      A
 Frequencies --   3068.4595              3071.9807              3072.6427
 Red. masses --      1.0403                 1.0369                 1.0435
 Frc consts  --      5.7711                 5.7652                 5.8045
 IR Inten    --     14.5842                32.8283                11.3607

                     70                     71                     72
                      A                      A                      A
 Frequencies --   3075.3290              3101.4354              3103.5606
 Red. masses --      1.0529                 1.1014                 1.0962
 Frc consts  --      5.8672                 6.2417                 6.2212
 IR Inten    --     16.7271                21.5349                23.9284

                     73                     74                     75
                      A                      A                      A
 Frequencies --   3115.3625              3139.0060              3142.0900
 Red. masses --      1.1043                 1.1021                 1.1021
 Frc consts  --      6.3145                 6.3984                 6.4106
 IR Inten    --     31.3333                12.4396                19.2291

                     76                     77                     78
                      A                      A                      A
 Frequencies --   3143.8302              3145.7210              3153.4476
 Red. masses --      1.1024                 1.1013                 1.1032
 Frc consts  --      6.4195                 6.4208                 6.4637
 IR Inten    --     41.2081                 5.6366                 1.8605

                     79                     80                     81
                      A                      A                      A
 Frequencies --   3163.9884              3172.9523              3173.2380
 Red. masses --      1.1009                 1.1011                 1.1010
 Frc consts  --      6.4933                 6.5316                 6.5322
 IR Inten    --     19.3809                 0.4888                15.0085

 - Thermochemistry -
 -------------------
 Temperature   298.150 Kelvin.  Pressure   1.00000 Atm.
 Atom     1 has atomic number  8 and mass  15.99491

 Molecular mass:   156.13884 amu.
 Principal axes and moments of inertia in atomic units:
                           1         2         3
     Eigenvalues --  1204.802421673.364862083.08830
           X            1.00000  -0.00000   0.00000
           Y            0.00000   1.00000  -0.00033
           Z           -0.00000   0.00033   1.00000
 This molecule is an asymmetric top.
 Rotational symmetry number  1.
 Warning -- assumption of classical behavior for rotation
           may cause significant error
 Rotational temperatures (Kelvin)      0.07189     0.05176     0.04158
 Rotational constants (GHZ):           1.49796     1.07851     0.86638
 Zero-point vibrational energy     693499.1 (Joules/Mol)
                                  165.75027 (Kcal/Mol)
 Warning -- explicit consideration of  20 degrees of freedom as
           vibrations may cause significant error
 Vibrational temperatures:    123.36   191.55   285.44   296.41   353.63
          (Kelvin)            377.04   405.89   425.71   435.99   450.99
                              476.66   486.03   563.29   592.03   592.46
                              661.54   684.47   789.96   825.27   841.25
                              945.83  1165.55  1181.83  1260.86  1296.95
                             1362.51  1372.94  1373.84  1408.93  1437.76
                             1463.44  1463.65  1538.09  1558.99  1562.41
                             1606.12  1690.15  1746.63  1783.02  1801.86
                             1829.88  1855.06  1876.74  1914.39  1979.80
                             1997.68  2001.05  2010.49  2014.30  2034.49
                             2037.21  2116.74  2123.18  2126.59  2132.37
                             2141.72  2144.52  2151.68  2156.72  2162.61
                             2172.19  2174.20  2188.62  4391.86  4393.56
                             4412.89  4414.83  4419.89  4420.85  4424.71
                             4462.27  4465.33  4482.31  4516.33  4520.77
                             4523.27  4525.99  4537.11  4552.27  4565.17
                             4565.58

 Zero-point correction=                           0.264140 (Hartree/Particle)
 Thermal correction to Energy=                    0.275872
 Thermal correction to Enthalpy=                  0.276817
 Thermal correction to Gibbs Free Energy=         0.227825
 Sum of electronic and zero-point Energies=           -483.411049
 Sum of electronic and thermal Energies=              -483.399316
 Sum of electronic and thermal Enthalpies=            -483.398372
 Sum of electronic and thermal Free Energies=         -483.447364

                     E (Thermal)             CV                S
                      KCal/Mol        Cal/Mol-Kelvin    Cal/Mol-Kelvin
 Total                  173.113             47.446            103.111
 Electronic               0.000              0.000              1.377
 Translational            0.889              2.981             41.046
 Rotational               0.889              2.981             29.819
 Vibrational            171.335             41.484             30.868
 Vibration     1          0.601              1.959              3.755
 Vibration     2          0.613              1.920              2.900
 Vibration     3          0.637              1.842              2.148
 Vibration     4          0.640              1.831              2.079
 Vibration     5          0.660              1.770              1.761
 Vibration     6          0.669              1.742              1.648
 Vibration     7          0.681              1.707              1.521
 Vibration     8          0.690              1.681              1.440
 Vibration     9          0.694              1.668              1.400
 Vibration    10          0.701              1.648              1.344
 Vibration    11          0.714              1.613              1.254
 Vibration    12          0.718              1.600              1.222
 Vibration    13          0.759              1.488              0.994
 Vibration    14          0.775              1.445              0.921
 Vibration    15          0.776              1.445              0.920
 Vibration    16          0.818              1.339              0.767
 Vibration    17          0.832              1.304              0.722
 Vibration    18          0.904              1.142              0.546
 Vibration    19          0.930              1.088              0.497
 Vibration    20          0.942              1.064              0.477

 Optimization completed.
    -- Stationary point found.
 Normal termination of Gaussian 16 at Tue Jan  7 18:14:35 2025.
