 Gaussian 16, Revision C.01,
 Gaussian 16:  ES64L-G16RevC.01  3-Jul-2019

 ----------------------------------
 #p M062X/DEF2TZVP opt freq pop=NBO
 ----------------------------------

 -----------------------
 data_set_12-catalyst-25
 -----------------------
 Symbolic Z-matrix:
 Charge =  0 Multiplicity = 2

 SCF Done:  E(UM062X) =  -445.550570753     A.U. after   17 cycles
 SCF Done:  E(UM062X) =  -445.552209479     A.U. after   15 cycles
 SCF Done:  E(UM062X) =  -445.546802143     A.U. after   15 cycles
 SCF Done:  E(UM062X) =  -445.552217150     A.U. after   15 cycles
 SCF Done:  E(UM062X) =  -445.552760694     A.U. after   14 cycles
 SCF Done:  E(UM062X) =  -445.552855986     A.U. after   12 cycles
 SCF Done:  E(UM062X) =  -445.552851204     A.U. after   13 cycles
 SCF Done:  E(UM062X) =  -445.552976312     A.U. after   13 cycles
 SCF Done:  E(UM062X) =  -445.552977508     A.U. after    9 cycles
 SCF Done:  E(UM062X) =  -445.552977786     A.U. after    8 cycles
 Optimization completed.
    -- Stationary point found.
 Normal termination of Gaussian 16 at Tue Jan  7 17:23:48 2025.

 --------------------------------------------------------------------
 #P Geom=AllCheck Guess=TCheck SCRF=Check GenChk UM062X/def2TZVP Freq
 --------------------------------------------------------------------

 Structure from the checkpoint file:  "outputs/data_set_12-catalyst-25.chk"
 -----------------------
 data_set_12-catalyst-25
 -----------------------
 Charge =  0 Multiplicity = 2

                         Standard orientation:
 ---------------------------------------------------------------------
 Center     Atomic      Atomic             Coordinates (Angstroms)
 Number     Number       Type             X           Y           Z
 ---------------------------------------------------------------------
      1          8           0       -0.033892   -1.795391   -0.135868
      2          7           0        0.001998   -0.528426   -0.214918
      3          6           0       -1.338042    0.113846   -0.015033
      4          6           0       -1.351800    1.617319   -0.262464
      5          6           0        1.582064    1.258561   -0.999863
      6          6           0        1.344655    0.110431   -0.012683
      7          6           0       -2.284134   -0.548029   -1.018814
      8          6           0       -1.809214   -0.188046    1.410986
      9          6           0        1.489726    0.586579    1.435098
     10          6           0        2.395705   -0.965251   -0.285500
     11          1           0       -1.057154    1.861131   -1.282369
     12          1           0       -0.725057    2.170223    0.434471
     13          1           0        1.272735    0.967207   -2.004655
     14          1           0        2.650333    1.476606   -1.026256
     15          1           0       -2.330207   -1.620909   -0.850954
     16          1           0       -1.939464   -0.369056   -2.038537
     17          1           0       -3.282889   -0.123847   -0.908821
     18          1           0       -1.203030    0.333742    2.151779
     19          1           0       -1.750576   -1.259573    1.596988
     20          1           0       -2.844739    0.134384    1.530576
     21          1           0        2.506371    0.950217    1.595266
     22          1           0        1.307316   -0.241352    2.121612
     23          1           0        0.804501    1.398320    1.675555
     24          1           0        2.307095   -1.794271    0.410835
     25          1           0        3.382415   -0.512981   -0.182452
     26          1           0        2.290746   -1.359678   -1.295819
     27          1           0       -2.376659    1.962528   -0.120078
     28          1           0        1.071646    2.176964   -0.726130
 ---------------------------------------------------------------------

 SCF Done:  E(UM062X) =  -445.552977786     A.U. after    1 cycles

 The electronic state is 2-A.
 Alpha  occ. eigenvalues --  -19.61461 -14.82883 -10.58800 -10.58589 -10.53395
 Alpha  occ. eigenvalues --  -10.53236 -10.53073 -10.52379 -10.51962 -10.51910
 Alpha  occ. eigenvalues --   -1.21979  -0.96148  -0.92628  -0.81806  -0.79753
 Alpha  occ. eigenvalues --   -0.78760  -0.78072  -0.77771  -0.68102  -0.60045
 Alpha  occ. eigenvalues --   -0.56551  -0.56386  -0.55809  -0.52128  -0.50684
 Alpha  occ. eigenvalues --   -0.50627  -0.48935  -0.47195  -0.46610  -0.45809
 Alpha  occ. eigenvalues --   -0.45111  -0.44299  -0.43443  -0.43177  -0.42939
 Alpha  occ. eigenvalues --   -0.40464  -0.39836  -0.39494  -0.38535  -0.32748
 Alpha  occ. eigenvalues --   -0.25394
 Alpha virt. eigenvalues --    0.05447   0.08472   0.09127   0.09874   0.10587
 Alpha virt. eigenvalues --    0.11609   0.11891   0.13144   0.13434   0.14153
 Alpha virt. eigenvalues --    0.14657   0.15614   0.16219   0.16801   0.17932

  Beta  occ. eigenvalues --  -19.60383 -14.82081 -10.58828 -10.58619 -10.53395
  Beta  occ. eigenvalues --  -10.53199 -10.53053 -10.52349 -10.51947 -10.51909
  Beta  occ. eigenvalues --   -1.19037  -0.94847  -0.92463  -0.79737  -0.79584
  Beta  occ. eigenvalues --   -0.78627  -0.77946  -0.77669  -0.67551  -0.59273
  Beta  occ. eigenvalues --   -0.56179  -0.54930  -0.53199  -0.51923  -0.50613
  Beta  occ. eigenvalues --   -0.50395  -0.47660  -0.46516  -0.46091  -0.45520
  Beta  occ. eigenvalues --   -0.45049  -0.43490  -0.43127  -0.42711  -0.42169
  Beta  occ. eigenvalues --   -0.39689  -0.39453  -0.38422  -0.36701  -0.31059
  Beta virt. eigenvalues --    0.00023   0.05496   0.08481   0.09252   0.09862
  Beta virt. eigenvalues --    0.10590   0.11625   0.11878   0.13132   0.13429
  Beta virt. eigenvalues --    0.14181   0.14624   0.15759   0.16229   0.16788

 Mulliken charges and spin densities:
               1          2
     1  O   -0.391161   0.529416
     2  N    0.193128   0.454218
     3  C   -0.010047   0.003233
     4  C   -0.476052  -0.003772
     5  C   -0.449618   0.019649
     6  C    0.004728  -0.034129
     7  C   -0.413759  -0.005458
     8  C   -0.431665   0.023136
     9  C   -0.454806   0.029024
    10  C   -0.405068  -0.006329
    11  H    0.178601  -0.000851
    12  H    0.151577  -0.000822
    13  H    0.173173  -0.002668
    14  H    0.150827   0.000940
    15  H    0.178466  -0.000424
    16  H    0.143434   0.001599
    17  H    0.134546  -0.001417
    18  H    0.143645   0.000793
    19  H    0.182873  -0.002592
    20  H    0.144765   0.000078
    21  H    0.155241   0.003929
    22  H    0.182213  -0.002416
    23  H    0.140143  -0.001414
    24  H    0.166987  -0.000104
    25  H    0.132915  -0.001123
    26  H    0.159802   0.000844
    27  H    0.162557  -0.001262
    28  H    0.152555  -0.002077
 Sum of Mulliken charges =  -0.00000   1.00000

 Dipole moment (field-independent basis, Debye):
    X=              0.1191    Y=              2.8546    Z=              0.3053  Tot=              2.8734
 Quadrupole moment (field-independent basis, Debye-Ang):
   XX=            -61.6001   YY=            -70.5901   ZZ=            -64.9376
   XY=             -0.1683   XZ=              0.0437   YZ=             -0.6093

  Exact polarizability:     116.207       0.052     104.508       0.004      -0.103      98.095
 Approx polarizability:     127.131       0.478     132.123      -0.001       0.217     120.033

 Summary of Natural Population Analysis:

                                       Natural Population
                Natural  -----------------------------------------------
    Atom  No    Charge         Core      Valence    Rydberg      Total
 -----------------------------------------------------------------------
      O    1    0.04617      0.99993     2.94861    0.00528     3.95383
      N    2    0.25005      0.99972     2.23024    0.01999     3.24995
      C    3    0.03832      0.99967     1.95360    0.00842     2.96168
      C    4   -0.30689      0.99970     2.30067    0.00652     3.30689
      C    5   -0.30277      0.99970     2.29665    0.00642     3.30277
      C    6    0.03770      0.99967     1.95503    0.00760     2.96230
      C    7   -0.29467      0.99970     2.28831    0.00665     3.29467
      C    8   -0.29418      0.99970     2.28793    0.00655     3.29418
      C    9   -0.29600      0.99969     2.28973    0.00657     3.29600
      C   10   -0.29601      0.99971     2.28914    0.00717     3.29601
      H   11    0.10719      0.00000     0.39229    0.00052     0.39281
      H   12    0.10220      0.00000     0.39719    0.00061     0.39780
      H   13    0.10789      0.00000     0.39164    0.00046     0.39211
      H   14    0.10668      0.00000     0.39286    0.00046     0.39332
      H   15    0.11678      0.00000     0.38265    0.00057     0.38322
      H   16    0.10389      0.00000     0.39559    0.00052     0.39611
      H   17    0.10031      0.00000     0.39921    0.00048     0.39969
      H   18    0.10204      0.00000     0.39748    0.00048     0.39796
      H   19    0.11426      0.00000     0.38523    0.00051     0.38574
      H   20    0.10375      0.00000     0.39577    0.00048     0.39625
      H   21    0.10848      0.00000     0.39107    0.00045     0.39152
      H   22    0.10889      0.00000     0.39061    0.00051     0.39111
      H   23    0.10075      0.00000     0.39865    0.00059     0.39925
      H   24    0.11393      0.00000     0.38555    0.00052     0.38607
      H   25    0.09890      0.00000     0.40065    0.00045     0.40110
      H   26    0.10946      0.00000     0.39003    0.00051     0.39054
      H   27    0.10851      0.00000     0.39103    0.00046     0.39149
      H   28    0.10437      0.00000     0.39515    0.00048     0.39563
 =======================================================================
   * Total *    0.50000      9.99718    29.91257    0.09024    40.00000

                      1                      2                      3
                      A                      A                      A
 Frequencies --     61.9171                91.8287               188.7961
 Red. masses --      4.0631                 2.6916                 1.5955
 Frc consts  --      0.0092                 0.0134                 0.0335
 IR Inten    --      3.0782                 0.0567                 0.5598

                      4                      5                      6
                      A                      A                      A
 Frequencies --    199.9436               221.7845               261.9983
 Red. masses --      1.3230                 1.7096                 1.1859
 Frc consts  --      0.0312                 0.0495                 0.0480
 IR Inten    --      0.0980                 0.4187                 0.2287

                      7                      8                      9
                      A                      A                      A
 Frequencies --    269.3924               280.7087               292.1285
 Red. masses --      1.1149                 2.0198                 2.1310
 Frc consts  --      0.0477                 0.0938                 0.1071
 IR Inten    --      0.0529                 1.0425                 0.1900

                     10                     11                     12
                      A                      A                      A
 Frequencies --    309.0335               322.9082               331.3132
 Red. masses --      1.2684                 1.9210                 1.9703
 Frc consts  --      0.0714                 0.1180                 0.1274
 IR Inten    --      0.3354                 0.0657                 0.4086

                     13                     14                     15
                      A                      A                      A
 Frequencies --    362.4815               374.9531               401.1765
 Red. masses --      1.5660                 1.9462                 1.6198
 Frc consts  --      0.1212                 0.1612                 0.1536
 IR Inten    --      0.5264                 0.1630                 0.2294

                     16                     17                     18
                      A                      A                      A
 Frequencies --    419.7706               431.5898               450.2265
 Red. masses --      2.2793                 2.1891                 3.0586
 Frc consts  --      0.2366                 0.2402                 0.3653
 IR Inten    --      0.1116                 1.3491                10.0458

                     19                     20                     21
                      A                      A                      A
 Frequencies --    549.3198               555.4749               562.5532
 Red. masses --      2.8288                 3.2438                 3.9714
 Frc consts  --      0.5029                 0.5897                 0.7405
 IR Inten    --      1.7957                13.7435                 6.7688

                     22                     23                     24
                      A                      A                      A
 Frequencies --    656.0245               814.1418               853.6417
 Red. masses --      3.6505                 3.0440                 2.4241
 Frc consts  --      0.9256                 1.1888                 1.0408
 IR Inten    --      2.3938                 0.1309                 0.9918

                     25                     26                     27
                      A                      A                      A
 Frequencies --    941.0521               943.7942               949.7635
 Red. masses --      1.6482                 1.6111                 1.5083
 Frc consts  --      0.8600                 0.8455                 0.8016
 IR Inten    --      0.7189                 0.3900                 0.6215

                     28                     29                     30
                      A                      A                      A
 Frequencies --    953.8396               969.1006               974.7585
 Red. masses --      1.5252                 1.2207                 1.2081
 Frc consts  --      0.8176                 0.6754                 0.6763
 IR Inten    --      1.2527                 0.2116                 0.0377

                     31                     32                     33
                      A                      A                      A
 Frequencies --   1017.2994              1046.9859              1052.0542
 Red. masses --      2.0487                 1.4058                 1.3912
 Frc consts  --      1.2492                 0.9079                 0.9072
 IR Inten    --      0.4868                 0.3717                 1.1132

                     34                     35                     36
                      A                      A                      A
 Frequencies --   1058.9161              1087.3646              1236.5953
 Red. masses --      1.3805                 1.8582                 2.3462
 Frc consts  --      0.9120                 1.2945                 2.1139
 IR Inten    --      0.1289                 2.5530                17.9709

                     37                     38                     39
                      A                      A                      A
 Frequencies --   1244.0828              1253.5465              1262.5368
 Red. masses --      2.5885                 2.7427                 2.8090
 Frc consts  --      2.3604                 2.5393                 2.6381
 IR Inten    --     25.8515                16.0309                16.3118

                     40                     41                     42
                      A                      A                      A
 Frequencies --   1278.9372              1291.2978              1391.7567
 Red. masses --      3.1232                 3.0132                 1.2681
 Frc consts  --      3.0098                 2.9602                 1.4472
 IR Inten    --     13.2641                17.1541                 5.5763

                     43                     44                     45
                      A                      A                      A
 Frequencies --   1394.4512              1399.8036              1403.0388
 Red. masses --      1.2817                 1.2716                 1.2913
 Frc consts  --      1.4684                 1.4680                 1.4976
 IR Inten    --     21.2780                14.1171                13.8027

                     46                     47                     48
                      A                      A                      A
 Frequencies --   1426.2104              1429.3164              1462.6068
 Red. masses --      1.2406                 1.3894                 4.2883
 Frc consts  --      1.4868                 1.6724                 5.4049
 IR Inten    --     21.1398                 2.3112                 1.1920

                     49                     50                     51
                      A                      A                      A
 Frequencies --   1471.3635              1474.5533              1483.9404
 Red. masses --      1.0464                 1.0484                 1.0468
 Frc consts  --      1.3347                 1.3431                 1.3581
 IR Inten    --      1.0319                 0.8025                 0.7936

                     52                     53                     54
                      A                      A                      A
 Frequencies --   1486.2954              1491.8294              1492.4156
 Red. masses --      1.0544                 1.0473                 1.0731
 Frc consts  --      1.3723                 1.3733                 1.4082
 IR Inten    --      2.5025                 0.5122                 0.8023

                     55                     56                     57
                      A                      A                      A
 Frequencies --   1498.7028              1499.9568              1511.2947
 Red. masses --      1.0606                 1.0628                 1.0667
 Frc consts  --      1.4035                 1.4089                 1.4355
 IR Inten    --      4.0469                 4.5836                 5.1389

                     58                     59                     60
                      A                      A                      A
 Frequencies --   1516.6870              1523.3452              1535.8646
 Red. masses --      1.0576                 1.0605                 1.0570
 Frc consts  --      1.4334                 1.4499                 1.4691
 IR Inten    --     10.1105                19.7375                 5.6963

                     61                     62                     63
                      A                      A                      A
 Frequencies --   3066.0628              3069.2193              3071.7740
 Red. masses --      1.0355                 1.0357                 1.0364
 Frc consts  --      5.7355                 5.7485                 5.7617
 IR Inten    --      6.9038                26.6130                10.5720

                     64                     65                     66
                      A                      A                      A
 Frequencies --   3074.7305              3080.2132              3083.2102
 Red. masses --      1.0386                 1.0372                 1.0380
 Frc consts  --      5.7849                 5.7978                 5.8139
 IR Inten    --      6.3520                20.8045                16.2075

                     67                     68                     69
                      A                      A                      A
 Frequencies --   3136.9093              3138.8799              3139.8560
 Red. masses --      1.1024                 1.1024                 1.1022
 Frc consts  --      6.3915                 6.3997                 6.4019
 IR Inten    --     15.2020                 9.3961                11.7508

                     70                     71                     72
                      A                      A                      A
 Frequencies --   3141.8994              3146.8317              3154.0133
 Red. masses --      1.1010                 1.1013                 1.1025
 Frc consts  --      6.4035                 6.4253                 6.4616
 IR Inten    --      6.7116                51.2016                13.5830

                     73                     74                     75
                      A                      A                      A
 Frequencies --   3154.9476              3161.8651              3171.7130
 Red. masses --      1.1017                 1.1030                 1.1013
 Frc consts  --      6.4612                 6.4968                 6.5274
 IR Inten    --     19.3519                 5.7093                14.1600

                     76                     77                     78
                      A                      A                      A
 Frequencies --   3178.1181              3182.2333              3185.1081
 Red. masses --      1.1005                 1.1010                 1.0971
 Frc consts  --      6.5493                 6.5690                 6.5577
 IR Inten    --      4.8136                 9.6780                17.9994

 - Thermochemistry -
 -------------------
 Temperature   298.150 Kelvin.  Pressure   1.00000 Atm.
 Atom     1 has atomic number  8 and mass  15.99491

 Molecular mass:   144.13884 amu.
 Principal axes and moments of inertia in atomic units:
                           1         2         3
     Eigenvalues --   959.206741728.204931898.50802
           X            1.00000  -0.00094  -0.00021
           Y            0.00093   0.99976  -0.02177
           Z            0.00023   0.02177   0.99976
 This molecule is an asymmetric top.
 Rotational symmetry number  1.
 Warning -- assumption of classical behavior for rotation
           may cause significant error
 Rotational temperatures (Kelvin)      0.09030     0.05012     0.04562
 Rotational constants (GHZ):           1.88149     1.04429     0.95061
 Zero-point vibrational energy     670244.0 (Joules/Mol)
                                  160.19216 (Kcal/Mol)
 Warning -- explicit consideration of  21 degrees of freedom as
           vibrations may cause significant error
 Vibrational temperatures:     89.08   132.12   271.64   287.67   319.10
          (Kelvin)            376.96   387.60   403.88   420.31   444.63
                              464.59   476.69   521.53   539.47   577.20
                              603.96   620.96   647.78   790.35   799.20
                              809.39   943.87  1171.37  1228.20  1353.96
                             1357.91  1366.50  1372.36  1394.32  1402.46
                             1463.67  1506.38  1513.67  1523.54  1564.48
                             1779.18  1789.96  1803.57  1816.51  1840.11
                             1857.89  2002.43  2006.30  2014.01  2018.66
                             2052.00  2056.47  2104.37  2116.96  2121.55
                             2135.06  2138.45  2146.41  2147.25  2156.30
                             2158.10  2174.42  2182.17  2191.75  2209.77
                             4411.38  4415.92  4419.60  4423.85  4431.74
                             4436.05  4513.31  4516.15  4517.55  4520.49
                             4527.59  4537.92  4539.27  4549.22  4563.39
                             4572.60  4578.52  4582.66

 Zero-point correction=                           0.255282 (Hartree/Particle)
 Thermal correction to Energy=                    0.267584
 Thermal correction to Enthalpy=                  0.268529
 Thermal correction to Gibbs Free Energy=         0.218303
 Sum of electronic and zero-point Energies=           -445.297695
 Sum of electronic and thermal Energies=              -445.285393
 Sum of electronic and thermal Enthalpies=            -445.284449
 Sum of electronic and thermal Free Energies=         -445.334675

                     E (Thermal)             CV                S
                      KCal/Mol        Cal/Mol-Kelvin    Cal/Mol-Kelvin
 Total                  167.912             48.196            105.708
 Electronic               0.000              0.000              1.377
 Translational            0.889              2.981             40.808
 Rotational               0.889              2.981             29.533
 Vibrational            166.134             42.234             33.990
 Vibration     1          0.597              1.972              4.395
 Vibration     2          0.602              1.955              3.621
 Vibration     3          0.633              1.855              2.240
 Vibration     4          0.638              1.840              2.134
 Vibration     5          0.648              1.808              1.944
 Vibration     6          0.669              1.742              1.648
 Vibration     7          0.674              1.729              1.600
 Vibration     8          0.680              1.709              1.529
 Vibration     9          0.688              1.688              1.462
 Vibration    10          0.698              1.657              1.368
 Vibration    11          0.708              1.630              1.295
 Vibration    12          0.714              1.613              1.254
 Vibration    13          0.736              1.550              1.111
 Vibration    14          0.746              1.523              1.059
 Vibration    15          0.767              1.468              0.958
 Vibration    16          0.782              1.427              0.893
 Vibration    17          0.793              1.401              0.853
 Vibration    18          0.809              1.360              0.795
 Vibration    19          0.905              1.141              0.546
 Vibration    20          0.911              1.128              0.533
 Vibration    21          0.918              1.112              0.519

                           ! Non-Optimized Parameters !
 Normal termination of Gaussian 16 at Tue Jan  7 18:11:28 2025.
