 Gaussian 16, Revision C.01,
 Gaussian 16:  ES64L-G16RevC.01  3-Jul-2019

 ----------------------------------
 #p M062X/DEF2TZVP opt freq pop=NBO
 ----------------------------------

 -----------------------
 data_set_12-catalyst-26
 -----------------------
 Symbolic Z-matrix:
 Charge =  0 Multiplicity = 2

 SCF Done:  E(UM062X) =  -827.819387284     A.U. after   21 cycles
 SCF Done:  E(UM062X) =  -827.825447077     A.U. after   27 cycles
 SCF Done:  E(UM062X) =  -827.825624783     A.U. after   18 cycles
 SCF Done:  E(UM062X) =  -827.825652152     A.U. after   30 cycles
 SCF Done:  E(UM062X) =  -827.825657427     A.U. after   11 cycles
 SCF Done:  E(UM062X) =  -827.825657594     A.U. after    8 cycles
 SCF Done:  E(UM062X) =  -827.825657702     A.U. after    7 cycles
 Optimization completed.
    -- Stationary point found.

 1\1\GINC-BD21\FOpt\UM062X\def2TZVP\C18H20N1O1(2)\MIYAO\07-Jan-2025\0\\
 #p M062X/DEF2TZVP opt freq pop=NBO\\data_set_12-catalyst-26\\0,2\O,-0.
 0000470915,0.000080983,1.9749298333\N,-0.0000152704,0.0000264318,0.715
 4328378\C,-0.8882677982,-0.8724446002,-0.0792980468\C,-0.2586886678,-0
 .7190892562,-1.4715822955\C,0.2586572922,0.7190662562,-1.471603864\C,0
 .8882508421,0.8724551219,-0.0793302779\C,0.8298020508,2.291681161,0.47
 34143191\C,-0.8297909284,-2.2916510234,0.4734939301\C,2.3230021626,0.3
 461933689,-0.0515162732\H,-0.9691018167,-0.9143529748,-2.271580449\H,0

 Normal termination of Gaussian 16 at Tue Jan  7 19:02:31 2025.

 --------------------------------------------------------------------
 #P Geom=AllCheck Guess=TCheck SCRF=Check GenChk UM062X/def2TZVP Freq
 --------------------------------------------------------------------

 Structure from the checkpoint file:  "outputs/data_set_12-catalyst-26.chk"
 -----------------------
 data_set_12-catalyst-26
 -----------------------
 Charge =  0 Multiplicity = 2

                         Standard orientation:
 ---------------------------------------------------------------------
 Center     Atomic      Atomic             Coordinates (Angstroms)
 Number     Number       Type             X           Y           Z
 ---------------------------------------------------------------------
      1          8           0       -0.000036   -0.000078   -1.978108
      2          7           0       -0.000004   -0.000024   -0.718611
      3          6           0       -0.887630    0.873085    0.076120
      4          6           0       -0.258161    0.719278    1.468404
      5          6           0        0.258153   -0.719249    1.468426
      6          6           0        0.887636   -0.873090    0.076152
      7          6           0        0.828168   -2.292273   -0.476592
      8          6           0       -0.828134    2.292249   -0.476672
      9          6           0        2.322765   -0.347858    0.048338
     10          1           0       -0.968434    0.915051    2.268402
     11          1           0        0.577735    1.416169    1.564650
     12          1           0        0.968417   -0.915001    2.268437
     13          1           0       -0.577744   -1.416139    1.564681
     14          1           0        0.197270    2.663433   -0.448301
     15          1           0       -1.458563    2.952543    0.118549
     16          1           0       -1.181626    2.301947   -1.506805
     17          1           0        1.181652   -2.301997   -1.506728
     18          1           0       -0.197226   -2.663482   -0.448200
     19          1           0        1.458619   -2.952532    0.118645
     20          6           0       -2.322763    0.347871    0.048308
     21          6           0       -2.721004   -0.691042   -0.786047
     22          6           0       -4.038670   -1.134328   -0.780229
     23          6           0       -4.975389   -0.545468    0.053806
     24          6           0       -4.588340    0.498020    0.884526
     25          6           0       -3.274789    0.938976    0.878596
     26          6           0        3.274819   -0.939025    0.878550
     27          6           0        4.588368   -0.498065    0.884476
     28          6           0        4.975388    0.545493    0.053830
     29          6           0        4.038641    1.134416   -0.780129
     30          6           0        2.720976    0.691124   -0.785944
     31          1           0       -2.006702   -1.145117   -1.459446
     32          1           0       -4.330745   -1.943471   -1.437282
     33          1           0       -6.000297   -0.892691    0.056100
     34          1           0       -5.310569    0.969413    1.538637
     35          1           0       -2.987372    1.755580    1.531075
     36          1           0        2.987427   -1.755686    1.530968
     37          1           0        5.310620   -0.969508    1.538526
     38          1           0        6.000294    0.892721    0.056121
     39          1           0        4.330692    1.943615   -1.437124
     40          1           0        2.006653    1.145255   -1.459283
 ---------------------------------------------------------------------

 SCF Done:  E(UM062X) =  -827.825657702     A.U. after    1 cycles

 The electronic state is 2-A.
 Alpha  occ. eigenvalues --  -19.63031 -14.83547 -10.59284 -10.59283 -10.55289
 Alpha  occ. eigenvalues --  -10.55288 -10.54562 -10.54524 -10.54418 -10.54418
 Alpha  occ. eigenvalues --  -10.54331 -10.54331 -10.54150 -10.54150 -10.54055
 Alpha  occ. eigenvalues --  -10.54055 -10.53861 -10.53861 -10.53003 -10.53003
 Alpha  occ. eigenvalues --   -1.23572  -1.01195  -0.97261  -0.95864  -0.91244
 Alpha  occ. eigenvalues --   -0.85073  -0.84835  -0.84634  -0.83670  -0.83358
 Alpha  occ. eigenvalues --   -0.80744  -0.74420  -0.71591  -0.69968  -0.68877
 Alpha  occ. eigenvalues --   -0.68857  -0.66006  -0.62620  -0.62054  -0.59773
 Alpha  occ. eigenvalues --   -0.56366  -0.56203  -0.55358  -0.53141  -0.52338
 Alpha  occ. eigenvalues --   -0.51895  -0.51441  -0.50571  -0.50235  -0.49279
 Alpha  occ. eigenvalues --   -0.49253  -0.48563  -0.48013  -0.46617  -0.46088
 Alpha  occ. eigenvalues --   -0.44672  -0.44326  -0.43892  -0.43744  -0.42500
 Alpha  occ. eigenvalues --   -0.41610  -0.40504  -0.40359  -0.39903  -0.39047
 Alpha  occ. eigenvalues --   -0.38710  -0.33718  -0.31100  -0.31071  -0.30525
 Alpha  occ. eigenvalues --   -0.30321  -0.25889
 Alpha virt. eigenvalues --    0.01660   0.01759   0.01935   0.02432   0.06565
 Alpha virt. eigenvalues --    0.07419   0.08599   0.08611   0.09663   0.10267
 Alpha virt. eigenvalues --    0.10379   0.11667   0.12130   0.12294   0.13443

  Beta  occ. eigenvalues --  -19.61966 -14.82745 -10.59327 -10.59326 -10.55241
  Beta  occ. eigenvalues --  -10.55241 -10.54561 -10.54523 -10.54415 -10.54415
  Beta  occ. eigenvalues --  -10.54328 -10.54328 -10.54149 -10.54149 -10.54055
  Beta  occ. eigenvalues --  -10.54055 -10.53865 -10.53865 -10.52983 -10.52983
  Beta  occ. eigenvalues --   -1.20619  -1.00036  -0.97198  -0.95631  -0.91093
  Beta  occ. eigenvalues --   -0.84922  -0.84666  -0.84610  -0.83234  -0.82649
  Beta  occ. eigenvalues --   -0.80092  -0.74319  -0.71302  -0.69792  -0.68827
  Beta  occ. eigenvalues --   -0.68768  -0.65683  -0.62055  -0.61154  -0.58806
  Beta  occ. eigenvalues --   -0.56231  -0.55713  -0.53356  -0.53024  -0.52230
  Beta  occ. eigenvalues --   -0.51383  -0.50955  -0.50396  -0.49995  -0.49201
  Beta  occ. eigenvalues --   -0.48981  -0.48306  -0.46513  -0.46512  -0.45559
  Beta  occ. eigenvalues --   -0.44378  -0.43871  -0.43838  -0.42487  -0.42099
  Beta  occ. eigenvalues --   -0.40690  -0.40311  -0.40135  -0.39861  -0.38569
  Beta  occ. eigenvalues --   -0.37274  -0.32221  -0.31061  -0.30992  -0.30466
  Beta  occ. eigenvalues --   -0.30195
  Beta virt. eigenvalues --   -0.01276   0.01713   0.01972   0.02243   0.02590
  Beta virt. eigenvalues --    0.06610   0.07437   0.08623   0.08627   0.09678
  Beta virt. eigenvalues --    0.10272   0.10439   0.11633   0.12165   0.12312

 Mulliken charges and spin densities:
               1          2
     1  O   -0.384944   0.527920
     2  N    0.113534   0.461145
     3  C   -0.007561  -0.013242
     4  C   -0.271001  -0.000532
     5  C   -0.271006  -0.000531
     6  C   -0.007542  -0.013243
     7  C   -0.412855   0.004260
     8  C   -0.412855   0.004259
     9  C    0.101768   0.021770
    10  H    0.161330   0.000021
    11  H    0.170722  -0.002841
    12  H    0.161334   0.000021
    13  H    0.170721  -0.002841
    14  H    0.148657   0.001414
    15  H    0.146334  -0.000192
    16  H    0.183517  -0.000791
    17  H    0.183517  -0.000791
    18  H    0.148661   0.001413
    19  H    0.146329  -0.000192
    20  C    0.101766   0.021768
    21  C   -0.171912  -0.002193
    22  C   -0.143256   0.002701
    23  C   -0.152683  -0.002020
    24  C   -0.153099   0.003307
    25  C   -0.256055  -0.000008
    26  C   -0.256068  -0.000009
    27  C   -0.153095   0.003307
    28  C   -0.152685  -0.002020
    29  C   -0.143255   0.002702
    30  C   -0.171914  -0.002197
    31  H    0.192220  -0.006806
    32  H    0.143765   0.000035
    33  H    0.142062   0.000028
    34  H    0.142318   0.000339
    35  H    0.171430   0.000221
    36  H    0.171432   0.000221
    37  H    0.142319   0.000339
    38  H    0.142062   0.000028
    39  H    0.143765   0.000035
    40  H    0.192222  -0.006806
 Sum of Mulliken charges =  -0.00000   1.00000

 Dipole moment (field-independent basis, Debye):
    X=              0.0001    Y=              0.0001    Z=              2.9650  Tot=              2.9650
 Quadrupole moment (field-independent basis, Debye-Ang):
   XX=           -109.5291   YY=           -114.6987   ZZ=           -123.8086
   XY=              1.1238   XZ=              0.0000   YZ=             -0.0003

  Exact polarizability:     272.629      12.024     180.531       0.001       0.000     168.325
 Approx polarizability:     295.160      14.555     247.922       0.000       0.001     246.384

 Summary of Natural Population Analysis:

                                       Natural Population
                Natural  -----------------------------------------------
    Atom  No    Charge         Core      Valence    Rydberg      Total
 -----------------------------------------------------------------------
      O    1    0.04667      0.99993     2.94809    0.00531     3.95333
      N    2    0.26137      0.99971     2.21814    0.02078     3.23863
      C    3    0.02457      0.99961     1.96550    0.01031     2.97543
      C    4   -0.19795      0.99969     2.19164    0.00662     3.19795
      C    5   -0.19795      0.99969     2.19164    0.00662     3.19795
      C    6    0.02457      0.99961     1.96550    0.01031     2.97543
      C    7   -0.29093      0.99970     2.28483    0.00639     3.29093
      C    8   -0.29093      0.99970     2.28483    0.00639     3.29093
      C    9   -0.00036      0.99951     1.98921    0.01164     3.00036
      H   10    0.11167      0.00000     0.38773    0.00060     0.38833
      H   11    0.10650      0.00000     0.39283    0.00066     0.39350
      H   12    0.11167      0.00000     0.38773    0.00060     0.38833
      H   13    0.10650      0.00000     0.39283    0.00066     0.39350
      H   14    0.10581      0.00000     0.39366    0.00053     0.39419
      H   15    0.10587      0.00000     0.39371    0.00042     0.39413
      H   16    0.11645      0.00000     0.38298    0.00056     0.38355
      H   17    0.11645      0.00000     0.38298    0.00056     0.38355
      H   18    0.10581      0.00000     0.39366    0.00053     0.39419
      H   19    0.10587      0.00000     0.39371    0.00042     0.39413
      C   20   -0.00036      0.99951     1.98921    0.01164     3.00036
      C   21   -0.10933      0.99955     2.10064    0.00914     3.10933
      C   22   -0.09825      0.99961     2.08976    0.00888     3.09825
      C   23   -0.10837      0.99961     2.09970    0.00906     3.10837
      C   24   -0.10034      0.99961     2.09142    0.00931     3.10034
      C   25   -0.10979      0.99956     2.10127    0.00897     3.10979
      C   26   -0.10979      0.99956     2.10127    0.00897     3.10979
      C   27   -0.10034      0.99961     2.09142    0.00931     3.10034
      C   28   -0.10837      0.99961     2.09970    0.00906     3.10837
      C   29   -0.09825      0.99961     2.08976    0.00888     3.09825
      C   30   -0.10933      0.99955     2.10064    0.00914     3.10933
      H   31    0.11573      0.00000     0.38343    0.00084     0.38427
      H   32    0.10683      0.00000     0.39264    0.00053     0.39317
      H   33    0.10689      0.00000     0.39260    0.00050     0.39311
      H   34    0.10670      0.00000     0.39276    0.00053     0.39330
      H   35    0.10427      0.00000     0.39507    0.00065     0.39573
      H   36    0.10427      0.00000     0.39507    0.00065     0.39573
      H   37    0.10670      0.00000     0.39276    0.00053     0.39330
      H   38    0.10689      0.00000     0.39260    0.00050     0.39311
      H   39    0.10683      0.00000     0.39264    0.00053     0.39317
      H   40    0.11573      0.00000     0.38343    0.00084     0.38427
 =======================================================================
   * Total *    0.50000     19.99256    50.80901    0.19843    71.00000

                      1                      2                      3
                      A                      A                      A
 Frequencies --     29.6956                53.0819                60.6087
 Red. masses --      4.5999                 4.3293                 3.8290
 Frc consts  --      0.0024                 0.0072                 0.0083
 IR Inten    --      0.3668                 0.1918                 0.3669

                      4                      5                      6
                      A                      A                      A
 Frequencies --     61.3342               123.0720               138.4276
 Red. masses --      4.0110                 4.5022                 3.5249
 Frc consts  --      0.0089                 0.0402                 0.0398
 IR Inten    --      0.0052                 0.0589                 0.3112

                      7                      8                      9
                      A                      A                      A
 Frequencies --    165.3634               193.7622               236.2379
 Red. masses --     10.1720                 3.5541                 1.1755
 Frc consts  --      0.1639                 0.0786                 0.0387
 IR Inten    --      6.0022                 0.6833                 0.4691

                     10                     11                     12
                      A                      A                      A
 Frequencies --    238.1957               249.6160               270.2658
 Red. masses --      1.4306                 2.0441                 2.6281
 Frc consts  --      0.0478                 0.0750                 0.1131
 IR Inten    --      0.9963                 0.5485                 0.3791

                     13                     14                     15
                      A                      A                      A
 Frequencies --    297.8993               301.8911               317.4597
 Red. masses --      2.5774                 2.8188                 3.3176
 Frc consts  --      0.1348                 0.1514                 0.1970
 IR Inten    --      0.0347                 0.0560                 5.0480

                     16                     17                     18
                      A                      A                      A
 Frequencies --    324.6689               339.0012               387.0916
 Red. masses --      3.1547                 4.8529                 2.5067
 Frc consts  --      0.1959                 0.3286                 0.2213
 IR Inten    --      0.1748                 7.6828                 0.2369

                     19                     20                     21
                      A                      A                      A
 Frequencies --    417.9673               418.2704               436.9583
 Red. masses --      2.9390                 2.9441                 4.5460
 Frc consts  --      0.3025                 0.3035                 0.5114
 IR Inten    --      0.0011                 0.0137                 0.4275

                     22                     23                     24
                      A                      A                      A
 Frequencies --    488.9077               520.6214               556.5661
 Red. masses --      4.1628                 3.1226                 3.3257
 Frc consts  --      0.5863                 0.4987                 0.6070
 IR Inten    --      0.4391                 7.4752                 3.4985

                     25                     26                     27
                      A                      A                      A
 Frequencies --    586.1683               594.8963               617.9224
 Red. masses --      3.9432                 2.7987                 4.4829
 Frc consts  --      0.7983                 0.5836                 1.0085
 IR Inten    --      8.6802                11.2957                10.3408

                     28                     29                     30
                      A                      A                      A
 Frequencies --    624.6546               633.1187               635.6526
 Red. masses --      3.7213                 6.3396                 5.4180
 Frc consts  --      0.8555                 1.4972                 1.2898
 IR Inten    --      4.0661                 0.2573                 3.1479

                     31                     32                     33
                      A                      A                      A
 Frequencies --    701.6251               728.1034               728.1150
 Red. masses --      5.2198                 1.6507                 1.6704
 Frc consts  --      1.5140                 0.5156                 0.5217
 IR Inten    --      1.3954                41.8517                44.4730

                     34                     35                     36
                      A                      A                      A
 Frequencies --    745.2819               792.0063               794.1262
 Red. masses --      3.2993                 1.9634                 2.0031
 Frc consts  --      1.0797                 0.7256                 0.7443
 IR Inten    --      0.5349                26.2360                24.1933

                     37                     38                     39
                      A                      A                      A
 Frequencies --    824.1513               878.7538               879.1190
 Red. masses --      2.5362                 1.2476                 1.2442
 Frc consts  --      1.0150                 0.5676                 0.5665
 IR Inten    --      0.7756                 0.1597                 0.0570

                     40                     41                     42
                      A                      A                      A
 Frequencies --    880.6785               914.1919               952.2986
 Red. masses --      1.8629                 2.0287                 1.7690
 Frc consts  --      0.8513                 0.9989                 0.9452
 IR Inten    --      2.3725                 0.2943                 4.9748

                     43                     44                     45
                      A                      A                      A
 Frequencies --    956.0417               956.5316              1003.0283
 Red. masses --      1.3998                 1.4349                 1.4025
 Frc consts  --      0.7538                 0.7735                 0.8313
 IR Inten    --      1.2717                 1.2286                 0.2530

                     46                     47                     48
                      A                      A                      A
 Frequencies --   1003.8922              1013.3911              1018.3406
 Red. masses --      1.3694                 1.9097                 1.6176
 Frc consts  --      0.8131                 1.1555                 0.9884
 IR Inten    --      0.7409                 1.0945                 0.9900

                     49                     50                     51
                      A                      A                      A
 Frequencies --   1018.4527              1020.9215              1021.8294
 Red. masses --      1.6347                 1.5900                 3.0550
 Frc consts  --      0.9990                 0.9764                 1.8794
 IR Inten    --      0.0070                 0.3727                 0.4369

                     52                     53                     54
                      A                      A                      A
 Frequencies --   1023.7721              1031.3401              1064.7714
 Red. masses --      2.8563                 2.4606                 2.4157
 Frc consts  --      1.7639                 1.5420                 1.6136
 IR Inten    --      0.0057                 2.0152                26.6645

                     55                     56                     57
                      A                      A                      A
 Frequencies --   1066.5072              1085.1669              1099.7622
 Red. masses --      2.4563                 1.4351                 1.8580
 Frc consts  --      1.6461                 0.9957                 1.3240
 IR Inten    --      0.1088                 8.6702                11.2703

                     58                     59                     60
                      A                      A                      A
 Frequencies --   1119.9745              1127.8617              1131.9149
 Red. masses --      1.5881                 1.7501                 1.9888
 Frc consts  --      1.1737                 1.3117                 1.5013
 IR Inten    --      4.2295                 0.1070                 0.0023

                     61                     62                     63
                      A                      A                      A
 Frequencies --   1173.3311              1177.9776              1178.7552
 Red. masses --      1.5832                 1.1421                 1.2110
 Frc consts  --      1.2842                 0.9338                 0.9914
 IR Inten    --      0.1482                 0.0439                 0.0678

                     64                     65                     66
                      A                      A                      A
 Frequencies --   1198.8675              1216.7777              1217.3895
 Red. masses --      2.5626                 1.1455                 1.1648
 Frc consts  --      2.1700                 0.9993                 1.0171
 IR Inten    --      6.8289                 2.5751                 0.0449

                     67                     68                     69
                      A                      A                      A
 Frequencies --   1225.8928              1232.7499              1247.7004
 Red. masses --      3.0850                 4.0409                 2.0699
 Frc consts  --      2.7316                 3.6181                 1.8986
 IR Inten    --      2.7615                 7.8816                 0.0371

                     70                     71                     72
                      A                      A                      A
 Frequencies --   1288.8182              1307.5649              1316.7996
 Red. masses --      2.8593                 2.3626                 4.9728
 Frc consts  --      2.7983                 2.3799                 5.0803
 IR Inten    --      1.5087                50.4874                 1.3951

                     73                     74                     75
                      A                      A                      A
 Frequencies --   1318.3306              1353.7064              1355.4316
 Red. masses --      4.4290                 1.8223                 1.4165
 Frc consts  --      4.5353                 1.9675                 1.5332
 IR Inten    --      0.4718                 4.0796                 0.8487

                     76                     77                     78
                      A                      A                      A
 Frequencies --   1361.8674              1362.6845              1404.1788
 Red. masses --      1.3679                 1.3765                 1.2491
 Frc consts  --      1.4948                 1.5060                 1.4510
 IR Inten    --      1.4337                 2.2505                 3.4387

                     79                     80                     81
                      A                      A                      A
 Frequencies --   1405.4186              1483.3451              1484.8238
 Red. masses --      1.2398                 1.0717                 1.0598
 Frc consts  --      1.4428                 1.3893                 1.3766
 IR Inten    --     17.0443                 0.6921                 1.5047

                     82                     83                     84
                      A                      A                      A
 Frequencies --   1488.4030              1489.1337              1491.3670
 Red. masses --      1.8019                 2.2689                 1.1532
 Frc consts  --      2.3519                 2.9643                 1.5112
 IR Inten    --      4.1122                 7.5236                17.4332

                     85                     86                     87
                      A                      A                      A
 Frequencies --   1494.7721              1498.4404              1501.3175
 Red. masses --      1.1011                 1.1298                 1.1180
 Frc consts  --      1.4496                 1.4947                 1.4846
 IR Inten    --      8.8698                 0.5162                 4.1184

                     88                     89                     90
                      A                      A                      A
 Frequencies --   1539.2769              1542.8954              1543.1930
 Red. masses --      7.7381                 2.2542                 2.2993
 Frc consts  --     10.8023                 3.1616                 3.2261
 IR Inten    --      6.8267                33.3004                 0.2477

                     91                     92                     93
                      A                      A                      A
 Frequencies --   1655.1786              1655.6800              1677.1197
 Red. masses --      5.9513                 5.9382                 5.9057
 Frc consts  --      9.6062                 9.5908                 9.7870
 IR Inten    --      1.4609                 1.1531                13.5932

                     94                     95                     96
                      A                      A                      A
 Frequencies --   1677.4831              3070.9455              3071.0480
 Red. masses --      5.8909                 1.0365                 1.0349
 Frc consts  --      9.7668                 5.7592                 5.7510
 IR Inten    --      0.0270                 0.3043                20.0012

                     97                     98                     99
                      A                      A                      A
 Frequencies --   3077.1504              3085.0259              3148.6363
 Red. masses --      1.0675                 1.0641                 1.1025
 Frc consts  --      5.9555                 5.9670                 6.4400
 IR Inten    --      5.4249                25.5041                 0.1096

                    100                    101                    102
                      A                      A                      A
 Frequencies --   3148.7286              3155.7690              3158.0505
 Red. masses --      1.1027                 1.0970                 1.1010
 Frc consts  --      6.4413                 6.4365                 6.4696
 IR Inten    --     32.8028                 8.7628                30.5815

                    103                    104                    105
                      A                      A                      A
 Frequencies --   3162.7699              3162.8292              3192.0068
 Red. masses --      1.1029                 1.1028                 1.0870
 Frc consts  --      6.5003                 6.4999                 6.5253
 IR Inten    --      3.7921                 4.1272                 7.5601

                    106                    107                    108
                      A                      A                      A
 Frequencies --   3192.0480              3205.2993              3205.3298
 Red. masses --      1.0870                 1.0872                 1.0872
 Frc consts  --      6.5255                 6.5810                 6.5812
 IR Inten    --      1.3704                 0.3296                 0.0125

                    109                    110                    111
                      A                      A                      A
 Frequencies --   3213.6414              3213.6670              3225.5785
 Red. masses --      1.0922                 1.0922                 1.0937
 Frc consts  --      6.6457                 6.6458                 6.7046
 IR Inten    --     11.6468                11.1391                11.4214

                    112                    113                    114
                      A                      A                      A
 Frequencies --   3225.6748              3231.7563              3231.8589
 Red. masses --      1.0937                 1.0969                 1.0969
 Frc consts  --      6.7049                 6.7501                 6.7502
 IR Inten    --      1.1639                18.5484                 0.2311

 - Thermochemistry -
 -------------------
 Temperature   298.150 Kelvin.  Pressure   1.00000 Atm.
 Atom     1 has atomic number  8 and mass  15.99491

 Molecular mass:   266.15449 amu.
 Principal axes and moments of inertia in atomic units:
                           1         2         3
     Eigenvalues --  1916.938589026.444969284.81315
           X            1.00000  -0.00089  -0.00000
           Y            0.00089   1.00000  -0.00001
           Z            0.00000   0.00001   1.00000
 This molecule is an asymmetric top.
 Rotational symmetry number  1.
 Warning -- assumption of classical behavior for rotation
           may cause significant error
 Rotational temperatures (Kelvin)      0.04518     0.00960     0.00933
 Rotational constants (GHZ):           0.94147     0.19994     0.19438
 Zero-point vibrational energy     896277.0 (Joules/Mol)
                                  214.21534 (Kcal/Mol)
 Warning -- explicit consideration of  27 degrees of freedom as
           vibrations may cause significant error
 Vibrational temperatures:     42.73    76.37    87.20    88.25   177.07
          (Kelvin)            199.17   237.92   278.78   339.89   342.71
                              359.14   388.85   428.61   434.35   456.75
                              467.13   487.75   556.94   601.36   601.80
                              628.69   703.43   749.06   800.77   843.37
                              855.92   889.05   898.74   910.92   914.56
                             1009.48  1047.58  1047.60  1072.29  1139.52
                             1142.57  1185.77  1264.33  1264.86  1267.10
                             1315.32  1370.15  1375.53  1376.24  1443.13
                             1444.38  1458.04  1465.17  1465.33  1468.88
                             1470.18  1472.98  1483.87  1531.97  1534.47
                             1561.31  1582.31  1611.39  1622.74  1628.57
                             1688.16  1694.85  1695.97  1724.90  1750.67
                             1751.55  1763.79  1773.65  1795.16  1854.32
                             1881.29  1894.58  1896.78  1947.68  1950.16
                             1959.42  1960.60  2020.30  2022.08  2134.20
                             2136.33  2141.48  2142.53  2145.74  2150.64
                             2155.92  2160.06  2214.68  2219.88  2220.31
                             2381.43  2382.15  2413.00  2413.52  4418.41
                             4418.55  4427.33  4438.66  4530.19  4530.32
                             4540.45  4543.73  4550.52  4550.61  4592.59
                             4592.65  4611.71  4611.75  4623.71  4623.75
                             4640.89  4641.03  4649.78  4649.92

 Zero-point correction=                           0.341374 (Hartree/Particle)
 Thermal correction to Energy=                    0.358550
 Thermal correction to Enthalpy=                  0.359494
 Thermal correction to Gibbs Free Energy=         0.295979
 Sum of electronic and zero-point Energies=           -827.484284
 Sum of electronic and thermal Energies=              -827.467108
 Sum of electronic and thermal Enthalpies=            -827.466164
 Sum of electronic and thermal Free Energies=         -827.529679

                     E (Thermal)             CV                S
                      KCal/Mol        Cal/Mol-Kelvin    Cal/Mol-Kelvin
 Total                  224.993             69.736            133.679
 Electronic               0.000              0.000              1.377
 Translational            0.889              2.981             42.636
 Rotational               0.889              2.981             33.440
 Vibrational            223.216             63.775             56.225
 Vibration     1          0.593              1.984              5.850
 Vibration     2          0.596              1.976              4.699
 Vibration     3          0.597              1.973              4.437
 Vibration     4          0.597              1.973              4.414
 Vibration     5          0.610              1.930              3.052
 Vibration     6          0.614              1.915              2.825
 Vibration     7          0.624              1.885              2.488
 Vibration     8          0.635              1.849              2.192
 Vibration     9          0.655              1.785              1.831
 Vibration    10          0.656              1.782              1.816
 Vibration    11          0.662              1.763              1.733
 Vibration    12          0.674              1.728              1.595
 Vibration    13          0.691              1.678              1.429
 Vibration    14          0.694              1.670              1.406
 Vibration    15          0.704              1.640              1.323
 Vibration    16          0.709              1.626              1.286
 Vibration    17          0.719              1.598              1.217
 Vibration    18          0.756              1.498              1.011
 Vibration    19          0.781              1.431              0.899
 Vibration    20          0.781              1.431              0.898
 Vibration    21          0.797              1.390              0.836
 Vibration    22          0.845              1.275              0.686
 Vibration    23          0.876              1.204              0.609
 Vibration    24          0.912              1.125              0.531
 Vibration    25          0.943              1.061              0.474
 Vibration    26          0.953              1.043              0.459
 Vibration    27          0.978              0.994              0.420

 Optimization completed.
    -- Stationary point found.

 1\1\GINC-BD21\Freq\UM062X\def2TZVP\C18H20N1O1(2)\MIYAO\07-Jan-2025\0\\
 #P Geom=AllCheck Guess=TCheck SCRF=Check GenChk UM062X/def2TZVP Freq\\
 data_set_12-catalyst-26\\0,2\O,-0.0000470915,0.000080983,1.9749298333\
 N,-0.0000152704,0.0000264318,0.7154328378\C,-0.8882677982,-0.872444600
 2,-0.0792980468\C,-0.2586886678,-0.7190892562,-1.4715822955\C,0.258657
 2922,0.7190662562,-1.471603864\C,0.8882508421,0.8724551219,-0.07933027
 79\C,0.8298020508,2.291681161,0.4734143191\C,-0.8297909284,-2.29165102
 34,0.4734939301\C,2.3230021626,0.3461933689,-0.0515162732\H,-0.9691018

 Normal termination of Gaussian 16 at Tue Jan  7 23:29:32 2025.
