 Gaussian 16, Revision C.01,
 Gaussian 16:  ES64L-G16RevC.01  3-Jul-2019

 ----------------------------------
 #p M062X/DEF2TZVP opt freq pop=NBO
 ----------------------------------

 -----------------------
 data_set_12-catalyst-28
 -----------------------
 Symbolic Z-matrix:
 Charge =  0 Multiplicity = 2

 SCF Done:  E(UM062X) =  -558.896472822     A.U. after   17 cycles
 SCF Done:  E(UM062X) =  -558.901754982     A.U. after   13 cycles
 SCF Done:  E(UM062X) =  -558.901958212     A.U. after   13 cycles
 SCF Done:  E(UM062X) =  -558.902058743     A.U. after   12 cycles
 SCF Done:  E(UM062X) =  -558.902091414     A.U. after   11 cycles
 SCF Done:  E(UM062X) =  -558.902094011     A.U. after    9 cycles
 SCF Done:  E(UM062X) =  -558.902094023     A.U. after    8 cycles
 Optimization completed.
    -- Stationary point found.
 Normal termination of Gaussian 16 at Tue Jan  7 17:22:07 2025.

 --------------------------------------------------------------------
 #P Geom=AllCheck Guess=TCheck SCRF=Check GenChk UM062X/def2TZVP Freq
 --------------------------------------------------------------------

 Structure from the checkpoint file:  "outputs/data_set_12-catalyst-28.chk"
 -----------------------
 data_set_12-catalyst-28
 -----------------------
 Charge =  0 Multiplicity = 2

                         Standard orientation:
 ---------------------------------------------------------------------
 Center     Atomic      Atomic             Coordinates (Angstroms)
 Number     Number       Type             X           Y           Z
 ---------------------------------------------------------------------
      1          8           0       -2.280368    0.183290   -0.251869
      2          7           0       -1.017682    0.080740   -0.268299
      3          6           0       -0.261949    1.338254   -0.016485
      4          6           0        1.214209    1.135571   -0.360536
      5          6           0        1.797320   -0.150046    0.199374
      6          6           0        1.017441   -1.322048   -0.356407
      7          6           0       -0.471029   -1.281026   -0.012765
      8          6           0       -0.852287    2.412268   -0.925809
      9          6           0       -0.453408    1.758156    1.445743
     10          6           0       -0.728520   -1.660719    1.450259
     11          6           0       -1.225581   -2.248898   -0.919831
     12          1           0        1.770362    2.003379    0.007517
     13          1           0        1.337599    1.105125   -1.447155
     14          1           0        1.740896   -0.147138    1.294421
     15          8           0        3.144932   -0.326830   -0.203866
     16          1           0        1.438743   -2.258447    0.014388
     17          1           0        1.144927   -1.314705   -1.442896
     18          1           0       -1.885863    2.617806   -0.657042
     19          1           0       -0.822341    2.087069   -1.966069
     20          1           0       -0.266805    3.327550   -0.826351
     21          1           0        0.060741    1.095847    2.140822
     22          1           0       -1.517025    1.756525    1.683958
     23          1           0       -0.064899    2.767727    1.589276
     24          1           0       -0.507077   -2.719134    1.595256
     25          1           0       -1.777817   -1.486804    1.688631
     26          1           0       -0.112650   -1.090115    2.144072
     27          1           0       -1.144894   -1.934491   -1.960729
     28          1           0       -2.278437   -2.287922   -0.650153
     29          1           0       -0.791468   -3.244609   -0.819016
     30          1           0        3.666101    0.416406    0.113782
 ---------------------------------------------------------------------

 SCF Done:  E(UM062X) =  -558.902094023     A.U. after    1 cycles

 The electronic state is 2-A.
 Alpha  occ. eigenvalues --  -19.63170 -19.62201 -14.83360 -10.59536 -10.59010
 Alpha  occ. eigenvalues --  -10.58788 -10.54274 -10.53787 -10.53210 -10.52970
 Alpha  occ. eigenvalues --  -10.52509 -10.52280  -1.22737  -1.15637  -0.98147
 Alpha  occ. eigenvalues --   -0.92985  -0.86394  -0.82061  -0.79407  -0.78662
 Alpha  occ. eigenvalues --   -0.78238  -0.69485  -0.68685  -0.61910  -0.59346
 Alpha  occ. eigenvalues --   -0.57389  -0.56795  -0.55729  -0.53086  -0.51666
 Alpha  occ. eigenvalues --   -0.50172  -0.50016  -0.48207  -0.47606  -0.46586
 Alpha  occ. eigenvalues --   -0.45977  -0.44513  -0.43959  -0.43762  -0.43270
 Alpha  occ. eigenvalues --   -0.41788  -0.40961  -0.40025  -0.39863  -0.38113
 Alpha  occ. eigenvalues --   -0.35209  -0.33181  -0.26040
 Alpha virt. eigenvalues --    0.05085   0.06417   0.07910   0.08448   0.09791
 Alpha virt. eigenvalues --    0.11600   0.12106   0.12321   0.13496   0.13949
 Alpha virt. eigenvalues --    0.14305   0.14929   0.15657   0.15780   0.16710

  Beta  occ. eigenvalues --  -19.63170 -19.61130 -14.82582 -10.59537 -10.59039
  Beta  occ. eigenvalues --  -10.58817 -10.54272 -10.53785 -10.53176 -10.52936
  Beta  occ. eigenvalues --  -10.52496 -10.52268  -1.19849  -1.15633  -0.96984
  Beta  occ. eigenvalues --   -0.92813  -0.85824  -0.80394  -0.79214  -0.78614
  Beta  occ. eigenvalues --   -0.78143  -0.69281  -0.68166  -0.61589  -0.58888
  Beta  occ. eigenvalues --   -0.56357  -0.55997  -0.53304  -0.52268  -0.51324
  Beta  occ. eigenvalues --   -0.50127  -0.49699  -0.47319  -0.47007  -0.46320
  Beta  occ. eigenvalues --   -0.45773  -0.43880  -0.43558  -0.43417  -0.42400
  Beta  occ. eigenvalues --   -0.41583  -0.40333  -0.39743  -0.38160  -0.36856
  Beta  occ. eigenvalues --   -0.35142  -0.31561
  Beta virt. eigenvalues --   -0.00949   0.05171   0.06368   0.07883   0.08437
  Beta virt. eigenvalues --    0.09811   0.11552   0.12050   0.12344   0.13398
  Beta virt. eigenvalues --    0.13985   0.14506   0.15048   0.15753   0.15838

 Mulliken charges and spin densities:
               1          2
     1  O   -0.386479   0.527916
     2  N    0.198776   0.438982
     3  C    0.005869  -0.005723
     4  C   -0.380132   0.018529
     5  C    0.056671  -0.013031
     6  C   -0.310971   0.015037
     7  C    0.001787  -0.003097
     8  C   -0.420647  -0.007600
     9  C   -0.446625   0.026685
    10  C   -0.445135   0.026755
    11  C   -0.421710  -0.007593
    12  H    0.163493  -0.001028
    13  H    0.181424  -0.005399
    14  H    0.139474  -0.001062
    15  O   -0.457021   0.000186
    16  H    0.171046  -0.001012
    17  H    0.174516  -0.004992
    18  H    0.175766   0.000205
    19  H    0.151770   0.001338
    20  H    0.137502  -0.001217
    21  H    0.129208  -0.000119
    22  H    0.186818  -0.003323
    23  H    0.151822   0.001326
    24  H    0.154270   0.001337
    25  H    0.185096  -0.003340
    26  H    0.128751  -0.000146
    27  H    0.150295   0.001294
    28  H    0.174922   0.000203
    29  H    0.140362  -0.001216
    30  H    0.309082   0.000106
 Sum of Mulliken charges =  -0.00000   1.00000

 Dipole moment (field-independent basis, Debye):
    X=              2.2665    Y=              0.9694    Z=              1.2633  Tot=              2.7700
 Quadrupole moment (field-independent basis, Debye-Ang):
   XX=            -84.3036   YY=            -71.2174   ZZ=            -75.0509
   XY=              6.0016   XZ=              1.6456   YZ=              0.1009

  Exact polarizability:     120.901       1.489     124.451       0.462       0.252     105.114
 Approx polarizability:     146.766       0.547     140.042       0.356       0.710     133.472

 Summary of Natural Population Analysis:

                                       Natural Population
                Natural  -----------------------------------------------
    Atom  No    Charge         Core      Valence    Rydberg      Total
 -----------------------------------------------------------------------
      O    1    0.04859      0.99993     2.94622    0.00526     3.95141
      N    2    0.24558      0.99970     2.23433    0.02039     3.25442
      C    3    0.03949      0.99966     1.95186    0.00900     2.96051
      C    4   -0.21253      0.99966     2.20429    0.00859     3.21253
      C    5    0.04885      0.99959     1.94279    0.00877     2.95115
      C    6   -0.20709      0.99965     2.19848    0.00896     3.20709
      C    7    0.04003      0.99965     1.95159    0.00873     2.95997
      C    8   -0.29386      0.99970     2.28745    0.00670     3.29386
      C    9   -0.29451      0.99969     2.28830    0.00652     3.29451
      C   10   -0.29408      0.99969     2.28796    0.00643     3.29408
      C   11   -0.29366      0.99970     2.28731    0.00665     3.29366
      H   12    0.10346      0.00000     0.39587    0.00067     0.39654
      H   13    0.10808      0.00000     0.39113    0.00079     0.39192
      H   14    0.07715      0.00000     0.42203    0.00083     0.42285
      O   15   -0.35188      0.99991     3.34616    0.00580     4.35188
      H   16    0.11153      0.00000     0.38789    0.00058     0.38847
      H   17    0.10613      0.00000     0.39306    0.00081     0.39387
      H   18    0.11558      0.00000     0.38384    0.00058     0.38442
      H   19    0.10667      0.00000     0.39278    0.00055     0.39333
      H   20    0.10135      0.00000     0.39821    0.00044     0.39865
      H   21    0.10053      0.00000     0.39888    0.00059     0.39947
      H   22    0.11420      0.00000     0.38526    0.00053     0.38580
      H   23    0.10569      0.00000     0.39385    0.00047     0.39431
      H   24    0.10666      0.00000     0.39288    0.00046     0.39334
      H   25    0.11339      0.00000     0.38606    0.00055     0.38661
      H   26    0.10016      0.00000     0.39925    0.00059     0.39984
      H   27    0.10648      0.00000     0.39300    0.00052     0.39352
      H   28    0.11501      0.00000     0.38442    0.00057     0.38499
      H   29    0.10224      0.00000     0.39732    0.00044     0.39776
      H   30    0.23075      0.00000     0.26737    0.00187     0.26925
 =======================================================================
   * Total *    0.50000     11.99655    34.88983    0.11361    47.00000

                      1                      2                      3
                      A                      A                      A
 Frequencies --     80.7092               127.9263               170.3308
 Red. masses --      4.6752                 2.4389                 3.5125
 Frc consts  --      0.0179                 0.0235                 0.0600
 IR Inten    --      3.8769                 0.8750                 0.6174

                      4                      5                      6
                      A                      A                      A
 Frequencies --    193.2320               204.2093               242.5152
 Red. masses --      1.0677                 2.7925                 1.1101
 Frc consts  --      0.0235                 0.0686                 0.0385
 IR Inten    --      0.0834                 0.7897                 0.1452

                      7                      8                      9
                      A                      A                      A
 Frequencies --    256.1646               267.6991               280.2170
 Red. masses --      1.2094                 1.1105                 1.3853
 Frc consts  --      0.0468                 0.0469                 0.0641
 IR Inten    --     12.4721                64.4163                 1.2941

                     10                     11                     12
                      A                      A                      A
 Frequencies --    290.5964               298.3619               314.8666
 Red. masses --      2.1558                 2.2747                 2.9139
 Frc consts  --      0.1073                 0.1193                 0.1702
 IR Inten    --     35.4337                 1.0153                 0.8612

                     13                     14                     15
                      A                      A                      A
 Frequencies --    326.4243               338.1474               385.8228
 Red. masses --      1.7422                 2.9338                 2.8272
 Frc consts  --      0.1094                 0.1977                 0.2480
 IR Inten    --      1.0141                 1.8623                 1.5430

                     16                     17                     18
                      A                      A                      A
 Frequencies --    401.3015               411.6614               428.4257
 Red. masses --      3.8120                 4.4404                 2.6774
 Frc consts  --      0.3617                 0.4434                 0.2895
 IR Inten    --     13.5307                 0.3895                 5.4726

                     19                     20                     21
                      A                      A                      A
 Frequencies --    469.8549               494.2208               567.4225
 Red. masses --      3.0009                 2.1685                 2.8442
 Frc consts  --      0.3903                 0.3121                 0.5395
 IR Inten    --      2.0398                 2.2953                 1.6215

                     22                     23                     24
                      A                      A                      A
 Frequencies --    587.9603               594.1628               709.7253
 Red. masses --      2.9874                 4.0206                 3.4409
 Frc consts  --      0.6085                 0.8363                 1.0212
 IR Inten    --      5.3121                10.4164                11.4316

                     25                     26                     27
                      A                      A                      A
 Frequencies --    830.9213               877.1878               887.4038
 Red. masses --      2.5522                 2.5492                 1.5805
 Frc consts  --      1.0382                 1.1557                 0.7333
 IR Inten    --      0.8223                 1.1099                 1.0822

                     28                     29                     30
                      A                      A                      A
 Frequencies --    926.5480               952.3687               959.3203
 Red. masses --      2.3301                 1.4984                 1.4724
 Frc consts  --      1.1786                 0.8007                 0.7984
 IR Inten    --     11.4833                 1.0270                 1.4226

                     31                     32                     33
                      A                      A                      A
 Frequencies --    969.1193               990.6116              1014.9846
 Red. masses --      1.6846                 1.6601                 1.4559
 Frc consts  --      0.9322                 0.9598                 0.8837
 IR Inten    --      1.4174                 1.7429                 1.8706

                     34                     35                     36
                      A                      A                      A
 Frequencies --   1018.3666              1061.2541              1082.5559
 Red. masses --      1.3071                 1.5703                 2.2108
 Frc consts  --      0.7986                 1.0420                 1.5265
 IR Inten    --      0.6422                 1.7464                 0.8268

                     37                     38                     39
                      A                      A                      A
 Frequencies --   1103.6373              1115.7438              1120.2268
 Red. masses --      1.8070                 1.5927                 2.7592
 Frc consts  --      1.2968                 1.1682                 2.0401
 IR Inten    --     40.2981                33.0888                22.3202

                     40                     41                     42
                      A                      A                      A
 Frequencies --   1196.7931              1218.5790              1229.9280
 Red. masses --      2.1346                 2.4534                 2.5254
 Frc consts  --      1.8013                 2.1464                 2.2508
 IR Inten    --     19.0437                15.6770                14.0806

                     43                     44                     45
                      A                      A                      A
 Frequencies --   1255.0047              1267.8836              1287.1811
 Red. masses --      1.9899                 1.9347                 2.3219
 Frc consts  --      1.8466                 1.8324                 2.2666
 IR Inten    --     26.2098                17.3837                19.5487

                     46                     47                     48
                      A                      A                      A
 Frequencies --   1292.1968              1324.2825              1345.3334
 Red. masses --      1.9236                 1.3594                 1.5625
 Frc consts  --      1.8925                 1.4046                 1.6662
 IR Inten    --     18.1237                 1.1069                 6.6449

                     49                     50                     51
                      A                      A                      A
 Frequencies --   1363.3234              1392.0456              1398.7793
 Red. masses --      1.7264                 1.2948                 1.3190
 Frc consts  --      1.8905                 1.4783                 1.5205
 IR Inten    --     23.1445                 0.0859                27.1897

                     52                     53                     54
                      A                      A                      A
 Frequencies --   1409.9511              1412.4408              1417.7365
 Red. masses --      1.3521                 1.2382                 1.4690
 Frc consts  --      1.5837                 1.4554                 1.7397
 IR Inten    --     26.8401                11.7484                16.5942

                     55                     56                     57
                      A                      A                      A
 Frequencies --   1448.7645              1470.3379              1476.1861
 Red. masses --      1.6222                 1.0602                 4.5059
 Frc consts  --      2.0061                 1.3505                 5.7851
 IR Inten    --      6.2988                 2.2756                 1.1094

                     58                     59                     60
                      A                      A                      A
 Frequencies --   1479.3799              1480.7922              1489.7058
 Red. masses --      1.0696                 1.0780                 1.0584
 Frc consts  --      1.3792                 1.3926                 1.3839
 IR Inten    --      2.7113                 0.9759                 0.5421

                     61                     62                     63
                      A                      A                      A
 Frequencies --   1495.3230              1496.0578              1503.1803
 Red. masses --      1.0739                 1.0960                 1.1242
 Frc consts  --      1.4148                 1.4453                 1.4967
 IR Inten    --      1.1850                 1.8959                 9.5900

                     64                     65                     66
                      A                      A                      A
 Frequencies --   1508.4647              1509.8002              1519.3488
 Red. masses --      1.0763                 1.0579                 1.0984
 Frc consts  --      1.4429                 1.4208                 1.4939
 IR Inten    --      4.5340                10.1036                 7.8774

                     67                     68                     69
                      A                      A                      A
 Frequencies --   3033.6737              3050.4171              3065.3217
 Red. masses --      1.0816                 1.0596                 1.0607
 Frc consts  --      5.8646                 5.8090                 5.8719
 IR Inten    --     16.7981                19.7498                11.1412

                     70                     71                     72
                      A                      A                      A
 Frequencies --   3069.6256              3071.7698              3073.6060
 Red. masses --      1.0353                 1.0368                 1.0368
 Frc consts  --      5.7474                 5.7640                 5.7711
 IR Inten    --      1.8480                30.4325                31.4592

                     73                     74                     75
                      A                      A                      A
 Frequencies --   3076.0288              3098.2452              3118.1569
 Red. masses --      1.0375                 1.1037                 1.1024
 Frc consts  --      5.7837                 6.2421                 6.3153
 IR Inten    --      3.4439                20.2281                13.1001

                     76                     77                     78
                      A                      A                      A
 Frequencies --   3142.0627              3144.4382              3146.3097
 Red. masses --      1.1022                 1.1025                 1.1024
 Frc consts  --      6.4114                 6.4226                 6.4296
 IR Inten    --      7.4392                15.9743                39.9000

                     79                     80                     81
                      A                      A                      A
 Frequencies --   3148.3921              3155.8731              3166.6855
 Red. masses --      1.1016                 1.1032                 1.1007
 Frc consts  --      6.4334                 6.4737                 6.5034
 IR Inten    --      7.9837                 3.3915                17.9828

                     82                     83                     84
                      A                      A                      A
 Frequencies --   3172.9658              3173.3428              3869.5372
 Red. masses --      1.1015                 1.1013                 1.0664
 Frc consts  --      6.5336                 6.5343                 9.4074
 IR Inten    --      1.0958                14.2485                36.4429

 - Thermochemistry -
 -------------------
 Temperature   298.150 Kelvin.  Pressure   1.00000 Atm.
 Atom     1 has atomic number  8 and mass  15.99491

 Molecular mass:   172.13375 amu.
 Principal axes and moments of inertia in atomic units:
                           1         2         3
     Eigenvalues --  1680.981801855.723252729.80134
           X            0.99401   0.10924  -0.00004
           Y           -0.10924   0.99401   0.00012
           Z            0.00006  -0.00011   1.00000
 This molecule is an asymmetric top.
 Rotational symmetry number  1.
 Warning -- assumption of classical behavior for rotation
           may cause significant error
 Rotational temperatures (Kelvin)      0.05153     0.04667     0.03173
 Rotational constants (GHZ):           1.07362     0.97253     0.66113
 Zero-point vibrational energy     704704.9 (Joules/Mol)
                                  168.42851 (Kcal/Mol)
 Warning -- explicit consideration of  23 degrees of freedom as
           vibrations may cause significant error
 Vibrational temperatures:    116.12   184.06   245.07   278.02   293.81
          (Kelvin)            348.93   368.56   385.16   403.17   418.10
                              429.28   453.02   469.65   486.52   555.11
                              577.38   592.29   616.41   676.02   711.07
                              816.39   845.94   854.87  1021.14  1195.51
                             1262.08  1276.78  1333.10  1370.25  1380.25
                             1394.35  1425.27  1460.34  1465.20  1526.91
                             1557.56  1587.89  1605.31  1611.76  1721.92
                             1753.26  1769.59  1805.67  1824.20  1851.97
                             1859.18  1905.35  1935.63  1961.52  2002.84
                             2012.53  2028.61  2032.19  2039.81  2084.45
                             2115.49  2123.90  2128.50  2130.53  2143.35
                             2151.44  2152.49  2162.74  2170.34  2172.27
                             2186.00  4364.78  4388.87  4410.31  4416.51
                             4419.59  4422.23  4425.72  4457.68  4486.33
                             4520.73  4524.15  4526.84  4529.83  4540.60
                             4556.15  4565.19  4565.73  5567.40

 Zero-point correction=                           0.268408 (Hartree/Particle)
 Thermal correction to Energy=                    0.281457
 Thermal correction to Enthalpy=                  0.282401
 Thermal correction to Gibbs Free Energy=         0.230550
 Sum of electronic and zero-point Energies=           -558.633686
 Sum of electronic and thermal Energies=              -558.620637
 Sum of electronic and thermal Enthalpies=            -558.619693
 Sum of electronic and thermal Free Energies=         -558.671544

                     E (Thermal)             CV                S
                      KCal/Mol        Cal/Mol-Kelvin    Cal/Mol-Kelvin
 Total                  176.617             52.005            109.130
 Electronic               0.000              0.000              1.377
 Translational            0.889              2.981             41.337
 Rotational               0.889              2.981             30.522
 Vibrational            174.839             46.043             35.894
 Vibration     1          0.600              1.962              3.874
 Vibration     2          0.611              1.925              2.977
 Vibration     3          0.625              1.879              2.432
 Vibration     4          0.635              1.849              2.197
 Vibration     5          0.640              1.834              2.095
 Vibration     6          0.659              1.775              1.784
 Vibration     7          0.666              1.752              1.688
 Vibration     8          0.673              1.732              1.611
 Vibration     9          0.680              1.710              1.532
 Vibration    10          0.687              1.691              1.470
 Vibration    11          0.691              1.677              1.426
 Vibration    12          0.702              1.645              1.337
 Vibration    13          0.710              1.623              1.278
 Vibration    14          0.718              1.599              1.221
 Vibration    15          0.755              1.500              1.016
 Vibration    16          0.767              1.467              0.958
 Vibration    17          0.776              1.445              0.921
 Vibration    18          0.790              1.408              0.864
 Vibration    19          0.827              1.317              0.738
 Vibration    20          0.850              1.263              0.673
 Vibration    21          0.923              1.102              0.509
 Vibration    22          0.945              1.057              0.471
 Vibration    23          0.952              1.044              0.460

                           ! Non-Optimized Parameters !
 Normal termination of Gaussian 16 at Tue Jan  7 18:30:14 2025.
