 Gaussian 16, Revision C.01,
 Gaussian 16:  ES64L-G16RevC.01  3-Jul-2019

 ----------------------------------
 #p M062X/DEF2TZVP opt freq pop=NBO
 ----------------------------------

 -----------------------
 data_set_12-catalyst-29
 -----------------------
 Symbolic Z-matrix:
 Charge =  0 Multiplicity = 2

 SCF Done:  E(UM062X) =  -676.595274141     A.U. after   25 cycles
 SCF Done:  E(UM062X) =  -676.600453613     A.U. after   17 cycles
 SCF Done:  E(UM062X) =  -676.600526006     A.U. after   22 cycles
 SCF Done:  E(UM062X) =  -676.600721733     A.U. after   21 cycles
 SCF Done:  E(UM062X) =  -676.600733981     A.U. after   15 cycles
 SCF Done:  E(UM062X) =  -676.600753258     A.U. after   15 cycles
 SCF Done:  E(UM062X) =  -676.600755402     A.U. after   11 cycles
 SCF Done:  E(UM062X) =  -676.600755743     A.U. after   10 cycles
 SCF Done:  E(UM062X) =  -676.600755900     A.U. after    7 cycles
 SCF Done:  E(UM062X) =  -676.600755892     A.U. after    7 cycles
 Optimization completed.
    -- Stationary point found.

 1\1\GINC-BD22\FOpt\UM062X\def2TZVP\C14H22N1O1(2)\MIYAO\07-Jan-2025\0\\
 #p M062X/DEF2TZVP opt freq pop=NBO\\data_set_12-catalyst-29\\0,2\O,-1.
 4662537289,0.1675935498,-1.5994558189\N,-1.3062170298,0.0139636741,-0.
 3515975494\C,-1.8715455675,-1.2307935372,0.2410371212\C,-1.1218067086,
 -2.4342230856,-0.3357011361\C,-0.2279214288,0.7893033618,0.290161726\C
 ,-1.7534368225,-1.208251448,1.7598418792\C,-3.3431632802,-1.2804535407
 ,-0.1632978384\C,-0.2247231176,2.2275162597,-0.2476759027\H,-0.0802934
 782,-2.4419268302,-0.0116632473\H,-1.1509444612,-2.3978227353,-1.42456

 Normal termination of Gaussian 16 at Tue Jan  7 18:40:16 2025.

 --------------------------------------------------------------------
 #P Geom=AllCheck Guess=TCheck SCRF=Check GenChk UM062X/def2TZVP Freq
 --------------------------------------------------------------------

 Structure from the checkpoint file:  "outputs/data_set_12-catalyst-29.chk"
 -----------------------
 data_set_12-catalyst-29
 -----------------------
 Charge =  0 Multiplicity = 2

                         Standard orientation:
 ---------------------------------------------------------------------
 Center     Atomic      Atomic             Coordinates (Angstroms)
 Number     Number       Type             X           Y           Z
 ---------------------------------------------------------------------
      1          8           0       -1.466526    0.137846   -1.601414
      2          7           0       -1.301507   -0.014157   -0.354006
      3          6           0       -1.839685   -1.271369    0.237615
      4          6           0       -1.065631   -2.457944   -0.341918
      5          6           0       -0.238837    0.782777    0.287365
      6          6           0       -1.719901   -1.248505    1.756284
      7          6           0       -3.310510   -1.351394   -0.164728
      8          6           0       -0.266654    2.221502   -0.248391
      9          1           0       -0.023723   -2.444202   -0.019353
     10          1           0       -1.097088   -2.420618   -1.430685
     11          1           0       -2.222750   -0.377784    2.181524
     12          1           0       -0.679556   -1.259609    2.083699
     13          1           0       -2.201191   -2.142471    2.153615
     14          1           0       -3.407612   -1.349131   -1.248145
     15          1           0       -3.861721   -0.498791    0.235900
     16          1           0       -3.747781   -2.268497    0.231373
     17          6           0        0.812106    3.053248    0.438885
     18          6           0       -1.643672    2.843267   -0.039461
     19          1           0       -1.520965   -3.391671   -0.007789
     20          1           0       -0.466181    0.827901    1.353481
     21          1           0        0.652619    3.076006    1.521031
     22          1           0        0.779554    4.081753    0.078027
     23          1           0        1.811361    2.659462    0.253422
     24          1           0       -1.902269    2.848612    1.023837
     25          1           0       -2.413149    2.296119   -0.581703
     26          1           0       -1.649919    3.877344   -0.386447
     27          6           0        1.106441    0.107243    0.110939
     28          6           0        1.896824   -0.189389    1.214976
     29          6           0        3.132414   -0.805303    1.058102
     30          6           0        3.585987   -1.132107   -0.210778
     31          6           0        2.801432   -0.836637   -1.319701
     32          6           0        1.570395   -0.219069   -1.161906
     33          1           0       -0.058176    2.176612   -1.319192
     34          1           0        1.543826    0.066879    2.208183
     35          1           0        3.737452   -1.030219    1.926982
     36          1           0        4.546028   -1.615320   -0.337323
     37          1           0        3.150979   -1.090970   -2.312104
     38          1           0        0.948769   -0.002997   -2.022676
 ---------------------------------------------------------------------

 SCF Done:  E(UM062X) =  -676.600755892     A.U. after    1 cycles

 The electronic state is 2-A.
 Alpha  occ. eigenvalues --  -19.62258 -14.83457 -10.58551 -10.58000 -10.55145
 Alpha  occ. eigenvalues --  -10.54577 -10.54499 -10.54381 -10.54299 -10.53923
 Alpha  occ. eigenvalues --  -10.53912 -10.53506 -10.52203 -10.52189 -10.52099
 Alpha  occ. eigenvalues --  -10.51696  -1.22766  -0.98116  -0.95720  -0.92560
 Alpha  occ. eigenvalues --   -0.86534  -0.84746  -0.84054  -0.78999  -0.78307
 Alpha  occ. eigenvalues --   -0.77315  -0.75262  -0.69762  -0.68195  -0.65119
 Alpha  occ. eigenvalues --   -0.62807  -0.60002  -0.57796  -0.56378  -0.55530
 Alpha  occ. eigenvalues --   -0.53438  -0.52483  -0.51242  -0.50857  -0.50153
 Alpha  occ. eigenvalues --   -0.49451  -0.48514  -0.46736  -0.46435  -0.45811
 Alpha  occ. eigenvalues --   -0.44901  -0.44445  -0.44286  -0.43974  -0.43265
 Alpha  occ. eigenvalues --   -0.41829  -0.40531  -0.40180  -0.39769  -0.39243
 Alpha  occ. eigenvalues --   -0.38827  -0.38421  -0.33742  -0.31291  -0.30513
 Alpha  occ. eigenvalues --   -0.25672
 Alpha virt. eigenvalues --    0.01496   0.01806   0.05331   0.07662   0.08344
 Alpha virt. eigenvalues --    0.08890   0.09967   0.10896   0.11296   0.11798
 Alpha virt. eigenvalues --    0.12392   0.12790   0.13356   0.13541   0.14138

  Beta  occ. eigenvalues --  -19.61207 -14.82657 -10.58583 -10.58030 -10.55098
  Beta  occ. eigenvalues --  -10.54574 -10.54496 -10.54379 -10.54297 -10.53918
  Beta  occ. eigenvalues --  -10.53902 -10.53505 -10.52173 -10.52171 -10.52100
  Beta  occ. eigenvalues --  -10.51698  -1.19869  -0.97619  -0.94732  -0.92424
  Beta  occ. eigenvalues --   -0.86253  -0.84716  -0.82983  -0.78842  -0.78123
  Beta  occ. eigenvalues --   -0.77307  -0.74469  -0.69708  -0.68009  -0.64869
  Beta  occ. eigenvalues --   -0.62037  -0.59475  -0.57222  -0.54736  -0.54279
  Beta  occ. eigenvalues --   -0.52543  -0.52288  -0.51227  -0.50511  -0.49778
  Beta  occ. eigenvalues --   -0.49184  -0.47503  -0.46516  -0.45972  -0.45638
  Beta  occ. eigenvalues --   -0.44768  -0.44302  -0.43989  -0.43227  -0.42023
  Beta  occ. eigenvalues --   -0.41509  -0.40429  -0.39936  -0.39266  -0.38894
  Beta  occ. eigenvalues --   -0.38342  -0.36707  -0.32328  -0.31243  -0.30066
  Beta virt. eigenvalues --   -0.01320   0.01603   0.02465   0.05324   0.07723
  Beta virt. eigenvalues --    0.08357   0.08872   0.09985   0.10957   0.11262
  Beta virt. eigenvalues --    0.11786   0.12415   0.12771   0.13371   0.13550

 Mulliken charges and spin densities:
               1          2
     1  O   -0.400184   0.518391
     2  N    0.215563   0.454786
     3  C    0.024896  -0.010199
     4  C   -0.457442   0.028350
     5  C   -0.348834  -0.026680
     6  C   -0.467031   0.000211
     7  C   -0.415314  -0.002227
     8  C   -0.047837   0.002998
     9  H    0.167937   0.000069
    10  H    0.177488  -0.002519
    11  H    0.168800  -0.000849
    12  H    0.155343  -0.000650
    13  H    0.160644  -0.001021
    14  H    0.177684  -0.000510
    15  H    0.144522   0.001896
    16  H    0.139246  -0.001028
    17  C   -0.450382  -0.001297
    18  C   -0.446766   0.004435
    19  H    0.147495   0.000747
    20  H    0.210829  -0.002358
    21  H    0.138072   0.000171
    22  H    0.148427   0.000186
    23  H    0.168593  -0.000020
    24  H    0.131849  -0.000453
    25  H    0.169432  -0.002378
    26  H    0.144561  -0.000228
    27  C    0.114914   0.037046
    28  C   -0.194491   0.006167
    29  C   -0.140335  -0.001986
    30  C   -0.148849   0.004348
    31  C   -0.132947  -0.003292
    32  C   -0.212294   0.001630
    33  H    0.154708  -0.001147
    34  H    0.163963  -0.000079
    35  H    0.143655   0.000436
    36  H    0.143488  -0.000068
    37  H    0.145534   0.000170
    38  H    0.205063  -0.003050
 Sum of Mulliken charges =  -0.00000   1.00000

 Dipole moment (field-independent basis, Debye):
    X=              0.7451    Y=             -0.7152    Z=              2.3315  Tot=              2.5500
 Quadrupole moment (field-independent basis, Debye-Ang):
   XX=            -97.4389   YY=            -98.6326   ZZ=            -99.4168
   XY=             -0.4968   XZ=             -4.3294   YZ=              0.1545

  Exact polarizability:     191.141     -13.181     159.155       1.133       1.546     157.537
 Approx polarizability:     218.345     -18.741     186.351       3.522       1.138     229.169

 Summary of Natural Population Analysis:

                                       Natural Population
                Natural  -----------------------------------------------
    Atom  No    Charge         Core      Valence    Rydberg      Total
 -----------------------------------------------------------------------
      O    1    0.03554      0.99993     2.95937    0.00515     3.96446
      N    2    0.25993      0.99972     2.22075    0.01959     3.24007
      C    3    0.03643      0.99967     1.95594    0.00796     2.96357
      C    4   -0.29370      0.99970     2.28742    0.00659     3.29370
      C    5   -0.05535      0.99956     2.04515    0.01064     3.05535
      C    6   -0.30763      0.99970     2.30157    0.00635     3.30763
      C    7   -0.29546      0.99970     2.28933    0.00643     3.29546
      C    8   -0.10440      0.99971     2.09646    0.00823     3.10440
      H    9    0.10765      0.00000     0.39182    0.00052     0.39235
      H   10    0.11251      0.00000     0.38696    0.00053     0.38749
      H   11    0.10547      0.00000     0.39405    0.00048     0.39453
      H   12    0.10602      0.00000     0.39340    0.00058     0.39398
      H   13    0.10958      0.00000     0.39000    0.00042     0.39042
      H   14    0.11605      0.00000     0.38340    0.00055     0.38395
      H   15    0.10421      0.00000     0.39526    0.00052     0.39579
      H   16    0.10200      0.00000     0.39756    0.00044     0.39800
      C   17   -0.29997      0.99973     2.29524    0.00500     3.29997
      C   18   -0.29948      0.99973     2.29463    0.00512     3.29948
      H   19    0.10417      0.00000     0.39537    0.00046     0.39583
      H   20    0.10539      0.00000     0.39290    0.00171     0.39461
      H   21    0.09753      0.00000     0.40188    0.00059     0.40247
      H   22    0.10595      0.00000     0.39364    0.00041     0.39405
      H   23    0.10872      0.00000     0.39086    0.00042     0.39128
      H   24    0.09632      0.00000     0.40311    0.00057     0.40368
      H   25    0.11247      0.00000     0.38699    0.00054     0.38753
      H   26    0.10453      0.00000     0.39506    0.00041     0.39547
      C   27   -0.00336      0.99952     1.99227    0.01157     3.00336
      C   28   -0.10797      0.99955     2.09930    0.00912     3.10797
      C   29   -0.10367      0.99961     2.09475    0.00931     3.10367
      C   30   -0.10574      0.99961     2.09710    0.00903     3.10574
      C   31   -0.09970      0.99961     2.09122    0.00886     3.09970
      C   32   -0.10642      0.99955     2.09765    0.00922     3.10642
      H   33    0.10871      0.00000     0.39053    0.00076     0.39129
      H   34    0.10480      0.00000     0.39458    0.00062     0.39520
      H   35    0.10728      0.00000     0.39219    0.00053     0.39272
      H   36    0.10709      0.00000     0.39241    0.00050     0.39291
      H   37    0.10739      0.00000     0.39207    0.00054     0.39261
      H   38    0.11711      0.00000     0.38212    0.00077     0.38289
 =======================================================================
   * Total *    0.50000     15.99463    43.85433    0.15104    60.00000

                      1                      2                      3
                      A                      A                      A
 Frequencies --     39.7861                52.5543                61.8566
 Red. masses --      3.1340                 3.9839                 3.3001
 Frc consts  --      0.0029                 0.0065                 0.0074
 IR Inten    --      0.0369                 0.9968                 0.1065

                      4                      5                      6
                      A                      A                      A
 Frequencies --     72.4826                94.1460               150.0596
 Red. masses --      2.7998                 3.2678                 3.2428
 Frc consts  --      0.0087                 0.0171                 0.0430
 IR Inten    --      0.1681                 0.7681                 1.7734

                      7                      8                      9
                      A                      A                      A
 Frequencies --    164.3950               212.8804               220.6341
 Red. masses --      4.8067                 1.2652                 1.1603
 Frc consts  --      0.0765                 0.0338                 0.0333
 IR Inten    --      3.9105                 0.2840                 0.2490

                     10                     11                     12
                      A                      A                      A
 Frequencies --    241.2464               243.6367               246.9697
 Red. masses --      2.5115                 2.1427                 1.2528
 Frc consts  --      0.0861                 0.0749                 0.0450
 IR Inten    --      0.0650                 0.5002                 0.1857

                     13                     14                     15
                      A                      A                      A
 Frequencies --    282.7430               292.8826               302.6811
 Red. masses --      1.8206                 1.6874                 2.1835
 Frc consts  --      0.0858                 0.0853                 0.1179
 IR Inten    --      0.2653                 0.1252                 0.1777

                     16                     17                     18
                      A                      A                      A
 Frequencies --    336.2371               343.6802               358.6615
 Red. masses --      1.9932                 1.4944                 2.7986
 Frc consts  --      0.1328                 0.1040                 0.2121
 IR Inten    --      0.9024                 0.2070                 3.5834

                     19                     20                     21
                      A                      A                      A
 Frequencies --    383.5379               386.6875               417.1990
 Red. masses --      2.4034                 2.6516                 2.8855
 Frc consts  --      0.2083                 0.2336                 0.2959
 IR Inten    --      3.8863                 4.2058                 0.0787

                     22                     23                     24
                      A                      A                      A
 Frequencies --    427.2837               437.2730               486.9893
 Red. masses --      2.3810                 2.5604                 2.9067
 Frc consts  --      0.2561                 0.2884                 0.4061
 IR Inten    --      0.4841                 1.6551                 1.1928

                     25                     26                     27
                      A                      A                      A
 Frequencies --    506.5241               567.3587               592.3318
 Red. masses --      3.6263                 3.3304                 3.8099
 Frc consts  --      0.5482                 0.6316                 0.7876
 IR Inten    --      5.7432                 2.6367                18.2863

                     28                     29                     30
                      A                      A                      A
 Frequencies --    632.2209               653.9762               727.9753
 Red. masses --      6.3362                 5.4670                 1.6482
 Frc consts  --      1.4922                 1.3776                 0.5146
 IR Inten    --      0.1336                 7.2244                46.2679

                     31                     32                     33
                      A                      A                      A
 Frequencies --    775.0260               813.3033               838.3248
 Red. masses --      2.4324                 2.8408                 3.3261
 Frc consts  --      0.8608                 1.1071                 1.3773
 IR Inten    --     29.3017                 1.5273                 2.1059

                     34                     35                     36
                      A                      A                      A
 Frequencies --    875.5327               881.1688               892.7997
 Red. masses --      2.4685                 1.3006                 2.4498
 Frc consts  --      1.1149                 0.5950                 1.1505
 IR Inten    --      2.8651                 0.2208                 2.8946

                     37                     38                     39
                      A                      A                      A
 Frequencies --    941.4003               942.9390               952.6856
 Red. masses --      1.1815                 1.6122                 1.5102
 Frc consts  --      0.6169                 0.8446                 0.8076
 IR Inten    --      3.1030                 1.4628                 0.5229

                     40                     41                     42
                      A                      A                      A
 Frequencies --    954.5387               969.0427               976.4812
 Red. masses --      1.4909                 1.2085                 1.7682
 Frc consts  --      0.8003                 0.6686                 0.9934
 IR Inten    --      3.8401                 0.2157                 3.7637

                     43                     44                     45
                      A                      A                      A
 Frequencies --    983.4403              1007.6759              1022.3100
 Red. masses --      1.5473                 1.3614                 4.7276
 Frc consts  --      0.8817                 0.8145                 2.9111
 IR Inten    --      2.0738                 0.0805                 0.2434

                     46                     47                     48
                      A                      A                      A
 Frequencies --   1026.4100              1046.4352              1050.6713
 Red. masses --      1.4002                 1.5151                 1.4018
 Frc consts  --      0.8691                 0.9775                 0.9117
 IR Inten    --      0.4436                 1.0572                 0.9937

                     49                     50                     51
                      A                      A                      A
 Frequencies --   1065.1260              1102.0586              1117.4799
 Red. masses --      2.1306                 1.8639                 1.8426
 Frc consts  --      1.4242                 1.3338                 1.3557
 IR Inten    --      2.7696                 4.3067                 1.4286

                     52                     53                     54
                      A                      A                      A
 Frequencies --   1153.6937              1173.3299              1179.4910
 Red. masses --      2.1282                 1.8644                 1.2787
 Frc consts  --      1.6690                 1.5123                 1.0481
 IR Inten    --      0.4827                 1.4453                 0.4737

                     55                     56                     57
                      A                      A                      A
 Frequencies --   1202.0828              1207.8625              1233.4935
 Red. masses --      1.7240                 1.1624                 2.3464
 Frc consts  --      1.4678                 0.9992                 2.1034
 IR Inten    --      8.2012                 1.4305                 1.8972

                     58                     59                     60
                      A                      A                      A
 Frequencies --   1254.4352              1261.9004              1281.8203
 Red. masses --      2.6688                 2.6929                 2.1275
 Frc consts  --      2.4744                 2.5265                 2.0596
 IR Inten    --     15.9368                23.4909                 7.7837

                     61                     62                     63
                      A                      A                      A
 Frequencies --   1287.8874              1319.6243              1341.7198
 Red. masses --      2.5536                 1.8630                 2.1076
 Frc consts  --      2.4955                 1.9115                 2.2354
 IR Inten    --      4.9558                 1.9366                 1.6093

                     64                     65                     66
                      A                      A                      A
 Frequencies --   1349.7899              1373.5746              1384.9452
 Red. masses --      1.4963                 1.4167                 1.3745
 Frc consts  --      1.6063                 1.5749                 1.5533
 IR Inten    --      0.5011                 0.2280                 1.7966

                     67                     68                     69
                      A                      A                      A
 Frequencies --   1393.0456              1397.2232              1402.0376
 Red. masses --      1.2699                 1.3123                 1.2978
 Frc consts  --      1.4519                 1.5094                 1.5031
 IR Inten    --     11.1354                19.2103                 5.0737

                     70                     71                     72
                      A                      A                      A
 Frequencies --   1421.5200              1425.6395              1472.7718
 Red. masses --      1.2472                 1.2516                 1.0480
 Frc consts  --      1.4849                 1.4988                 1.3393
 IR Inten    --     10.8347                13.5514                 0.5385

                     73                     74                     75
                      A                      A                      A
 Frequencies --   1484.6586              1486.5843              1490.1336
 Red. masses --      1.1356                 1.1394                 1.2063
 Frc consts  --      1.4747                 1.4836                 1.5782
 IR Inten    --      4.0436                 1.8720                 0.3809

                     76                     77                     78
                      A                      A                      A
 Frequencies --   1494.8371              1497.3638              1499.9886
 Red. masses --      1.0815                 1.5318                 1.3860
 Frc consts  --      1.4238                 2.0235                 1.8373
 IR Inten    --      2.8277                 9.6880                 0.4073

                     79                     80                     81
                      A                      A                      A
 Frequencies --   1501.4604              1503.8759              1508.1714
 Red. masses --      1.3349                 1.3088                 1.1101
 Frc consts  --      1.7731                 1.7440                 1.4878
 IR Inten    --      2.5820                11.2693                 4.4000

                     82                     83                     84
                      A                      A                      A
 Frequencies --   1515.8262              1525.0919              1540.7845
 Red. masses --      1.0654                 1.0743                 2.3290
 Frc consts  --      1.4423                 1.4721                 3.2577
 IR Inten    --     12.5178                13.5365                10.9447

                     85                     86                     87
                      A                      A                      A
 Frequencies --   1658.3017              1676.4826              3049.4144
 Red. masses --      5.9552                 5.9252                 1.0410
 Frc consts  --      9.6489                 9.8119                 5.7034
 IR Inten    --      1.3887                 4.2998                14.9663

                     88                     89                     90
                      A                      A                      A
 Frequencies --   3051.4650              3062.0941              3065.2654
 Red. masses --      1.0429                 1.0357                 1.0348
 Frc consts  --      5.7213                 5.7219                 5.7287
 IR Inten    --     27.4655                11.1297                14.5665

                     91                     92                     93
                      A                      A                      A
 Frequencies --   3070.7897              3090.3272              3110.7260
 Red. masses --      1.0369                 1.0807                 1.0850
 Frc consts  --      5.7608                 6.0808                 6.1859
 IR Inten    --     16.9468                 2.2216                 9.7931

                     94                     95                     96
                      A                      A                      A
 Frequencies --   3119.9035              3128.3237              3136.9123
 Red. masses --      1.0962                 1.0955                 1.1024
 Frc consts  --      6.2866                 6.3164                 6.3912
 IR Inten    --      4.7556                44.1296                 0.8595

                     97                     98                     99
                      A                      A                      A
 Frequencies --   3139.2536              3142.2898              3144.2044
 Red. masses --      1.1022                 1.1023                 1.1024
 Frc consts  --      6.3999                 6.4130                 6.4209
 IR Inten    --      7.0102                20.3017                23.9666

                    100                    101                    102
                      A                      A                      A
 Frequencies --   3146.4625              3153.9514              3154.6558
 Red. masses --      1.1013                 1.1031                 1.1011
 Frc consts  --      6.4242                 6.4652                 6.4563
 IR Inten    --     37.9754                 5.4700                12.4517

                    103                    104                    105
                      A                      A                      A
 Frequencies --   3170.9919              3185.5516              3201.3699
 Red. masses --      1.1011                 1.0885                 1.0869
 Frc consts  --      6.5233                 6.5079                 6.5632
 IR Inten    --      5.7561                 6.6682                 0.3276

                    106                    107                    108
                      A                      A                      A
 Frequencies --   3209.2278              3217.7650              3228.5762
 Red. masses --      1.0902                 1.0942                 1.0983
 Frc consts  --      6.6155                 6.6751                 6.7451
 IR Inten    --      3.4264                 8.6796                11.5165

 - Thermochemistry -
 -------------------
 Temperature   298.150 Kelvin.  Pressure   1.00000 Atm.
 Atom     1 has atomic number  8 and mass  15.99491

 Molecular mass:   220.17014 amu.
 Principal axes and moments of inertia in atomic units:
                           1         2         3
     Eigenvalues --  2674.254503903.351315160.56582
           X            0.99976   0.01981  -0.00881
           Y           -0.01977   0.99979   0.00491
           Z            0.00891  -0.00474   0.99995
 This molecule is an asymmetric top.
 Rotational symmetry number  1.
 Warning -- assumption of classical behavior for rotation
           may cause significant error
 Rotational temperatures (Kelvin)      0.03239     0.02219     0.01678
 Rotational constants (GHZ):           0.67486     0.46236     0.34972
 Zero-point vibrational energy     885551.9 (Joules/Mol)
                                  211.65197 (Kcal/Mol)
 Warning -- explicit consideration of  27 degrees of freedom as
           vibrations may cause significant error
 Vibrational temperatures:     57.24    75.61    89.00   104.29   135.46
          (Kelvin)            215.90   236.53   306.29   317.44   347.10
                              350.54   355.33   406.80   421.39   435.49
                              483.77   494.48   516.03   551.83   556.36
                              600.26   614.77   629.14   700.67   728.78
                              816.30   852.23   909.62   940.93  1047.39
                             1115.09  1170.16  1206.16  1259.70  1267.81
                             1284.54  1354.47  1356.68  1370.70  1373.37
                             1394.24  1404.94  1414.95  1449.82  1470.88
                             1476.78  1505.59  1511.68  1532.48  1585.62
                             1607.80  1659.91  1688.16  1697.02  1729.53
                             1737.84  1774.72  1804.85  1815.59  1844.25
                             1852.98  1898.64  1930.44  1942.05  1976.27
                             1992.63  2004.28  2010.29  2017.22  2045.25
                             2051.18  2118.99  2136.09  2138.86  2143.97
                             2150.74  2154.37  2158.15  2160.27  2163.74
                             2169.92  2180.94  2194.27  2216.85  2385.93
                             2412.08  4387.43  4390.38  4405.67  4410.23
                             4418.18  4446.29  4475.64  4488.85  4500.96
                             4513.32  4516.69  4521.05  4523.81  4527.06
                             4537.83  4538.85  4562.35  4583.30  4606.06
                             4617.36  4629.65  4645.20

 Zero-point correction=                           0.337289 (Hartree/Particle)
 Thermal correction to Energy=                    0.354275
 Thermal correction to Enthalpy=                  0.355219
 Thermal correction to Gibbs Free Energy=         0.292790
 Sum of electronic and zero-point Energies=           -676.263467
 Sum of electronic and thermal Energies=              -676.246481
 Sum of electronic and thermal Enthalpies=            -676.245536
 Sum of electronic and thermal Free Energies=         -676.307966

                     E (Thermal)             CV                S
                      KCal/Mol        Cal/Mol-Kelvin    Cal/Mol-Kelvin
 Total                  222.311             66.055            131.394
 Electronic               0.000              0.000              1.377
 Translational            0.889              2.981             42.071
 Rotational               0.889              2.981             32.355
 Vibrational            220.534             60.094             55.592
 Vibration     1          0.594              1.981              5.270
 Vibration     2          0.596              1.977              4.719
 Vibration     3          0.597              1.973              4.397
 Vibration     4          0.599              1.967              4.085
 Vibration     5          0.603              1.953              3.572
 Vibration     6          0.618              1.903              2.671
 Vibration     7          0.623              1.886              2.499
 Vibration     8          0.644              1.821              2.019
 Vibration     9          0.647              1.810              1.954
 Vibration    10          0.658              1.777              1.794
 Vibration    11          0.659              1.773              1.776
 Vibration    12          0.661              1.768              1.752
 Vibration    13          0.682              1.706              1.517
 Vibration    14          0.688              1.687              1.457
 Vibration    15          0.694              1.669              1.402
 Vibration    16          0.717              1.603              1.230
 Vibration    17          0.722              1.588              1.195
 Vibration    18          0.733              1.557              1.128
 Vibration    19          0.753              1.505              1.025
 Vibration    20          0.755              1.499              1.013
 Vibration    21          0.780              1.433              0.902
 Vibration    22          0.789              1.411              0.868
 Vibration    23          0.798              1.389              0.835
 Vibration    24          0.843              1.279              0.691
 Vibration    25          0.862              1.236              0.642
 Vibration    26          0.923              1.102              0.509
 Vibration    27          0.950              1.048              0.463

 Optimization completed.
    -- Stationary point found.

 1\1\GINC-BD22\Freq\UM062X\def2TZVP\C14H22N1O1(2)\MIYAO\07-Jan-2025\0\\
 #P Geom=AllCheck Guess=TCheck SCRF=Check GenChk UM062X/def2TZVP Freq\\
 data_set_12-catalyst-29\\0,2\O,-1.4662537289,0.1675935498,-1.599455818
 9\N,-1.3062170298,0.0139636741,-0.3515975494\C,-1.8715455675,-1.230793
 5372,0.2410371212\C,-1.1218067086,-2.4342230856,-0.3357011361\C,-0.227
 9214288,0.7893033618,0.290161726\C,-1.7534368225,-1.208251448,1.759841
 8792\C,-3.3431632802,-1.2804535407,-0.1632978384\C,-0.2247231176,2.227
 5162597,-0.2476759027\H,-0.0802934782,-2.4419268302,-0.0116632473\H,-1

 Normal termination of Gaussian 16 at Tue Jan  7 21:23:27 2025.
