 Gaussian 16, Revision C.01,
 Gaussian 16:  ES64L-G16RevC.01  3-Jul-2019

 ----------------------------------
 #p M062X/DEF2TZVP opt freq pop=NBO
 ----------------------------------

 -----------------------
 data_set_12-catalyst-31
 -----------------------
 Symbolic Z-matrix:
 Charge =  0 Multiplicity = 2

 SCF Done:  E(UM062X) =  -715.900208037     A.U. after   24 cycles
 SCF Done:  E(UM062X) =  -715.905396926     A.U. after   17 cycles
 SCF Done:  E(UM062X) =  -715.905506595     A.U. after   18 cycles
 SCF Done:  E(UM062X) =  -715.905506527     A.U. after   16 cycles
 SCF Done:  E(UM062X) =  -715.905630062     A.U. after   15 cycles
 SCF Done:  E(UM062X) =  -715.905635155     A.U. after   15 cycles
 SCF Done:  E(UM062X) =  -715.905638572     A.U. after   15 cycles
 SCF Done:  E(UM062X) =  -715.905640878     A.U. after   10 cycles
 SCF Done:  E(UM062X) =  -715.905641672     A.U. after    9 cycles
 SCF Done:  E(UM062X) =  -715.905642065     A.U. after   11 cycles
 SCF Done:  E(UM062X) =  -715.905642193     A.U. after    8 cycles
 Optimization completed.
    -- Stationary point found.

 1\1\GINC-BD22\FOpt\UM062X\def2TZVP\C15H24N1O1(2)\MIYAO\07-Jan-2025\0\\
 #p M062X/DEF2TZVP opt freq pop=NBO\\data_set_12-catalyst-31\\0,2\O,1.3
 577011872,-0.0125959595,1.660823905\N,1.213449253,-0.2321245172,0.4209
 35884\C,2.0142568703,-1.2985383862,-0.2429305646\C,2.7763114311,-2.059
 2632458,0.8330094223\C,0.1866474951,0.5078689891,-0.3224844194\C,1.082
 9408828,-2.256154371,-0.9897592632\C,3.0006991011,-0.6432251604,-1.212
 4355582\C,0.217332049,2.0406007709,-0.0372701258\H,2.0899532386,-2.509
 9831407,1.5483565698\H,3.446948086,-1.399813758,1.3797391836\H,0.54585

 Normal termination of Gaussian 16 at Tue Jan  7 19:20:01 2025.

 --------------------------------------------------------------------
 #P Geom=AllCheck Guess=TCheck SCRF=Check GenChk UM062X/def2TZVP Freq
 --------------------------------------------------------------------

 Structure from the checkpoint file:  "outputs/data_set_12-catalyst-31.chk"
 -----------------------
 data_set_12-catalyst-31
 -----------------------
 Charge =  0 Multiplicity = 2

                         Standard orientation:
 ---------------------------------------------------------------------
 Center     Atomic      Atomic             Coordinates (Angstroms)
 Number     Number       Type             X           Y           Z
 ---------------------------------------------------------------------
      1          8           0        1.343588   -0.029542    1.669301
      2          7           0        1.203422   -0.245833    0.428375
      3          6           0        1.997859   -1.318358   -0.233297
      4          6           0        2.747800   -2.087572    0.845116
      5          6           0        0.186939    0.504509   -0.318843
      6          6           0        1.061643   -2.266407   -0.986181
      7          6           0        2.994858   -0.670418   -1.196941
      8          6           0        0.229982    2.036457   -0.031027
      9          1           0        2.053944   -2.533225    1.556393
     10          1           0        3.421651   -1.435024    1.396158
     11          1           0        0.532971   -1.766897   -1.798529
     12          1           0        0.320031   -2.694003   -0.310508
     13          1           0        1.649434   -3.077086   -1.419239
     14          1           0        3.644936    0.021403   -0.660080
     15          1           0        2.490683   -0.124120   -1.995642
     16          1           0        3.612413   -1.441876   -1.659560
     17          6           0        1.683664    2.509677   -0.093162
     18          6           0       -0.385205    2.426041    1.314647
     19          1           0        3.326481   -2.879130    0.368037
     20          1           0        0.460405    0.397058   -1.371133
     21          1           0        2.271030    2.084914    0.720560
     22          1           0        1.719942    3.597562   -0.011909
     23          1           0        2.147620    2.229649   -1.042683
     24          1           0        0.134475    1.949626    2.142611
     25          1           0       -1.441142    2.155220    1.358892
     26          1           0       -0.315185    3.509656    1.433803
     27          6           0       -1.183190   -0.125166   -0.141257
     28          6           0       -2.026352   -0.266430   -1.238982
     29          6           0       -3.284456   -0.837057   -1.102453
     30          6           0       -3.711678   -1.280960    0.140350
     31          6           0       -2.873531   -1.151281    1.240096
     32          6           0       -1.617796   -0.577560    1.102654
     33          6           0       -0.562711    2.734715   -1.141277
     34          1           0       -1.691106    0.069145   -2.214629
     35          1           0       -3.926102   -0.940850   -1.967981
     36          1           0       -4.689830   -1.730581    0.251027
     37          1           0       -3.198795   -1.499772    2.211982
     38          1           0       -0.961816   -0.481758    1.958904
     39          1           0       -0.518989    3.815529   -0.996501
     40          1           0       -1.612654    2.438821   -1.130809
     41          1           0       -0.150003    2.511766   -2.128857
 ---------------------------------------------------------------------

 SCF Done:  E(UM062X) =  -715.905642193     A.U. after    1 cycles

 The electronic state is 2-A.
 Alpha  occ. eigenvalues --  -19.62130 -14.83290 -10.58804 -10.58215 -10.55110
 Alpha  occ. eigenvalues --  -10.55048 -10.54338 -10.54254 -10.54114 -10.54036
 Alpha  occ. eigenvalues --  -10.53675 -10.53349 -10.53116 -10.52244 -10.52195
 Alpha  occ. eigenvalues --  -10.51727 -10.50797  -1.22575  -0.98293  -0.95942
 Alpha  occ. eigenvalues --   -0.93191  -0.87766  -0.84547  -0.84067  -0.79281
 Alpha  occ. eigenvalues --   -0.78385  -0.77564  -0.77014  -0.75220  -0.69353
 Alpha  occ. eigenvalues --   -0.67752  -0.64085  -0.61871  -0.59389  -0.57801
 Alpha  occ. eigenvalues --   -0.56565  -0.54993  -0.53231  -0.53055  -0.50995
 Alpha  occ. eigenvalues --   -0.50909  -0.50678  -0.49186  -0.49031  -0.47969
 Alpha  occ. eigenvalues --   -0.46791  -0.46298  -0.45595  -0.45193  -0.44453
 Alpha  occ. eigenvalues --   -0.43924  -0.43520  -0.43429  -0.42221  -0.41525
 Alpha  occ. eigenvalues --   -0.40442  -0.40369  -0.39667  -0.38807  -0.38243
 Alpha  occ. eigenvalues --   -0.37669  -0.33216  -0.30984  -0.30164  -0.25171
 Alpha virt. eigenvalues --    0.01751   0.01987   0.04870   0.07658   0.08424
 Alpha virt. eigenvalues --    0.08968   0.10141   0.10434   0.10995   0.11292
 Alpha virt. eigenvalues --    0.11902   0.12569   0.13130   0.13266   0.14151

  Beta  occ. eigenvalues --  -19.61070 -14.82450 -10.58845 -10.58258 -10.55091
  Beta  occ. eigenvalues --  -10.55002 -10.54335 -10.54252 -10.54113 -10.54035
  Beta  occ. eigenvalues --  -10.53673 -10.53311 -10.53086 -10.52243 -10.52194
  Beta  occ. eigenvalues --  -10.51729 -10.50798  -1.19581  -0.97607  -0.95115
  Beta  occ. eigenvalues --   -0.93088  -0.87294  -0.84498  -0.83196  -0.79098
  Beta  occ. eigenvalues --   -0.78213  -0.77556  -0.77002  -0.74385  -0.69279
  Beta  occ. eigenvalues --   -0.67561  -0.63520  -0.61272  -0.58604  -0.57432
  Beta  occ. eigenvalues --   -0.54506  -0.54354  -0.52809  -0.52446  -0.50913
  Beta  occ. eigenvalues --   -0.50774  -0.50539  -0.48973  -0.48587  -0.47240
  Beta  occ. eigenvalues --   -0.46490  -0.45954  -0.45090  -0.44275  -0.44049
  Beta  occ. eigenvalues --   -0.43565  -0.43426  -0.42533  -0.41893  -0.41102
  Beta  occ. eigenvalues --   -0.40322  -0.39624  -0.38665  -0.38559  -0.37929
  Beta  occ. eigenvalues --   -0.36755  -0.31872  -0.30957  -0.29822
  Beta virt. eigenvalues --   -0.00395   0.01969   0.02287   0.04937   0.07660
  Beta virt. eigenvalues --    0.08431   0.08940   0.10145   0.10499   0.11021
  Beta virt. eigenvalues --    0.11273   0.11880   0.12577   0.13171   0.13299

 Mulliken charges and spin densities:
               1          2
     1  O   -0.403438   0.519783
     2  N    0.235714   0.486535
     3  C   -0.044470  -0.055068
     4  C   -0.393930   0.000895
     5  C   -0.383808  -0.052073
     6  C   -0.420485   0.017907
     7  C   -0.441636   0.030837
     8  C    0.127088   0.015721
     9  H    0.159690  -0.000094
    10  H    0.163762  -0.000509
    11  H    0.149980  -0.001080
    12  H    0.176401  -0.000488
    13  H    0.156870   0.002621
    14  H    0.174998  -0.002610
    15  H    0.145094  -0.003022
    16  H    0.157356   0.003462
    17  C   -0.474115   0.006398
    18  C   -0.483389  -0.003616
    19  H    0.136866  -0.001007
    20  H    0.229283  -0.001388
    21  H    0.181080  -0.002654
    22  H    0.150951  -0.000459
    23  H    0.147208  -0.001930
    24  H    0.184342   0.000132
    25  H    0.165212  -0.000126
    26  H    0.145457   0.000493
    27  C    0.151207   0.048159
    28  C   -0.239706   0.003135
    29  C   -0.134761   0.000317
    30  C   -0.152527   0.001513
    31  C   -0.131050  -0.002467
    32  C   -0.236714  -0.006716
    33  C   -0.491310  -0.000757
    34  H    0.177238   0.000047
    35  H    0.142334   0.000429
    36  H    0.142628   0.000001
    37  H    0.144702   0.000113
    38  H    0.211249  -0.003346
    39  H    0.156030   0.000800
    40  H    0.173559  -0.000071
    41  H    0.145042   0.000181
 Sum of Mulliken charges =  -0.00000   1.00000

 Dipole moment (field-independent basis, Debye):
    X=             -0.1622    Y=             -0.7475    Z=             -2.4919  Tot=              2.6066
 Quadrupole moment (field-independent basis, Debye-Ang):
   XX=           -102.5589   YY=           -105.5336   ZZ=           -107.2533
   XY=              0.3201   XZ=             -3.5743   YZ=             -0.8933

  Exact polarizability:     202.341      12.741     169.461       1.078      -2.973     169.855
 Approx polarizability:     234.009      16.744     199.931       4.268      -5.298     243.206

 Summary of Natural Population Analysis:

                                       Natural Population
                Natural  -----------------------------------------------
    Atom  No    Charge         Core      Valence    Rydberg      Total
 -----------------------------------------------------------------------
      O    1    0.03327      0.99993     2.96161    0.00519     3.96673
      N    2    0.26398      0.99973     2.21664    0.01965     3.23602
      C    3    0.03333      0.99967     1.95978    0.00722     2.96667
      C    4   -0.29771      0.99970     2.29096    0.00704     3.29771
      C    5   -0.05691      0.99954     2.04566    0.01170     3.05691
      C    6   -0.29810      0.99970     2.29204    0.00636     3.29810
      C    7   -0.29465      0.99969     2.28867    0.00629     3.29465
      C    8   -0.01075      0.99972     2.00286    0.00817     3.01075
      H    9    0.11063      0.00000     0.38886    0.00051     0.38937
      H   10    0.11240      0.00000     0.38709    0.00052     0.38760
      H   11    0.10353      0.00000     0.39598    0.00049     0.39647
      H   12    0.11128      0.00000     0.38822    0.00049     0.38872
      H   13    0.10795      0.00000     0.39161    0.00043     0.39205
      H   14    0.10851      0.00000     0.39098    0.00051     0.39149
      H   15    0.10132      0.00000     0.39821    0.00047     0.39868
      H   16    0.10790      0.00000     0.39166    0.00044     0.39210
      C   17   -0.30255      0.99971     2.29659    0.00626     3.30255
      C   18   -0.30827      0.99970     2.30221    0.00636     3.30827
      H   19    0.10141      0.00000     0.39818    0.00041     0.39859
      H   20    0.10548      0.00000     0.39285    0.00168     0.39452
      H   21    0.11254      0.00000     0.38689    0.00057     0.38746
      H   22    0.10424      0.00000     0.39527    0.00049     0.39576
      H   23    0.09942      0.00000     0.40006    0.00052     0.40058
      H   24    0.11831      0.00000     0.38117    0.00052     0.38169
      H   25    0.10544      0.00000     0.39409    0.00048     0.39456
      H   26    0.10203      0.00000     0.39748    0.00049     0.39797
      C   27   -0.00241      0.99951     1.99167    0.01122     3.00241
      C   28   -0.10826      0.99955     2.09969    0.00902     3.10826
      C   29   -0.10335      0.99961     2.09470    0.00904     3.10335
      C   30   -0.10662      0.99961     2.09797    0.00904     3.10662
      C   31   -0.10077      0.99961     2.09231    0.00885     3.10077
      C   32   -0.10724      0.99955     2.09855    0.00915     3.10724
      C   33   -0.30091      0.99971     2.29514    0.00606     3.30091
      H   34    0.10365      0.00000     0.39561    0.00074     0.39635
      H   35    0.10695      0.00000     0.39252    0.00053     0.39305
      H   36    0.10679      0.00000     0.39271    0.00050     0.39321
      H   37    0.10704      0.00000     0.39243    0.00053     0.39296
      H   38    0.11838      0.00000     0.38083    0.00078     0.38162
      H   39    0.10615      0.00000     0.39335    0.00050     0.39385
      H   40    0.10750      0.00000     0.39200    0.00050     0.39250
      H   41    0.09907      0.00000     0.40041    0.00052     0.40093
 =======================================================================
   * Total *    0.50000     16.99425    46.84551    0.16024    64.00000

                      1                      2                      3
                      A                      A                      A
 Frequencies --     36.1558                55.3241                57.3399
 Red. masses --      3.0576                 3.7542                 3.7849
 Frc consts  --      0.0024                 0.0068                 0.0073
 IR Inten    --      0.5242                 0.5208                 0.2579

                      4                      5                      6
                      A                      A                      A
 Frequencies --     73.1103                97.0702               130.0233
 Red. masses --      2.6960                 4.3876                 5.9470
 Frc consts  --      0.0085                 0.0244                 0.0592
 IR Inten    --      0.0096                 1.5909                 2.8604

                      7                      8                      9
                      A                      A                      A
 Frequencies --    157.1086               214.2772               228.9325
 Red. masses --      3.4370                 1.7413                 1.5104
 Frc consts  --      0.0500                 0.0471                 0.0466
 IR Inten    --      1.1654                 0.4733                 0.0160

                     10                     11                     12
                      A                      A                      A
 Frequencies --    238.8870               243.8498               275.5916
 Red. masses --      1.8566                 1.5969                 1.6186
 Frc consts  --      0.0624                 0.0559                 0.0724
 IR Inten    --      0.0167                 0.1256                 0.0327

                     13                     14                     15
                      A                      A                      A
 Frequencies --    281.7095               286.2782               291.4641
 Red. masses --      1.2545                 1.4665                 1.6599
 Frc consts  --      0.0587                 0.0708                 0.0831
 IR Inten    --      0.0982                 0.0974                 0.0581

                     16                     17                     18
                      A                      A                      A
 Frequencies --    303.7289               310.5888               322.6624
 Red. masses --      1.9136                 1.2782                 1.7744
 Frc consts  --      0.1040                 0.0726                 0.1088
 IR Inten    --      0.5908                 0.1802                 0.0553

                     19                     20                     21
                      A                      A                      A
 Frequencies --    330.8938               355.9387               384.9641
 Red. masses --      1.5303                 2.6110                 2.5080
 Frc consts  --      0.0987                 0.1949                 0.2190
 IR Inten    --      0.0100                 0.9116                 0.4967

                     22                     23                     24
                      A                      A                      A
 Frequencies --    396.4907               410.1211               416.9755
 Red. masses --      3.7597                 2.5527                 2.7545
 Frc consts  --      0.3482                 0.2530                 0.2822
 IR Inten    --     12.5772                 1.6572                 0.1123

                     25                     26                     27
                      A                      A                      A
 Frequencies --    418.9704               454.4410               481.8418
 Red. masses --      2.5504                 2.5303                 3.6048
 Frc consts  --      0.2638                 0.3079                 0.4931
 IR Inten    --      0.2667                 0.5091                 2.6019

                     28                     29                     30
                      A                      A                      A
 Frequencies --    492.8643               567.0004               594.0700
 Red. masses --      2.9034                 3.1281                 3.6552
 Frc consts  --      0.4155                 0.5925                 0.7600
 IR Inten    --      1.1278                 8.5978                18.4243

                     31                     32                     33
                      A                      A                      A
 Frequencies --    632.6275               647.1019               726.8284
 Red. masses --      6.3192                 5.0874                 1.7491
 Frc consts  --      1.4901                 1.2551                 0.5444
 IR Inten    --      0.2446                 3.6654                41.2046

                     34                     35                     36
                      A                      A                      A
 Frequencies --    754.7034               810.9396               827.7850
 Red. masses --      2.4021                 2.6830                 2.8405
 Frc consts  --      0.8061                 1.0396                 1.1468
 IR Inten    --     26.3330                 3.6677                 5.9553

                     37                     38                     39
                      A                      A                      A
 Frequencies --    853.0957               882.0342               896.2849
 Red. masses --      4.0741                 1.2510                 3.4126
 Frc consts  --      1.7469                 0.5734                 1.6152
 IR Inten    --      1.3291                 0.1309                 8.1444

                     40                     41                     42
                      A                      A                      A
 Frequencies --    933.6408               940.9764               953.6114
 Red. masses --      2.0885                 1.6203                 1.5341
 Frc consts  --      1.0726                 0.8453                 0.8220
 IR Inten    --      6.3901                 0.5378                 2.3180

                     43                     44                     45
                      A                      A                      A
 Frequencies --    955.3086               958.5290               966.9502
 Red. masses --      1.5617                 1.5756                 1.4611
 Frc consts  --      0.8397                 0.8529                 0.8049
 IR Inten    --      0.3528                 1.9364                 0.0319

                     46                     47                     48
                      A                      A                      A
 Frequencies --    969.9638               971.2410              1005.3954
 Red. masses --      1.2200                 1.2934                 1.3449
 Frc consts  --      0.6763                 0.7188                 0.8010
 IR Inten    --      0.0603                 0.3995                 0.0483

                     49                     50                     51
                      A                      A                      A
 Frequencies --   1022.9097              1023.2208              1046.0842
 Red. masses --      5.6392                 1.3346                 1.4584
 Frc consts  --      3.4765                 0.8233                 0.9403
 IR Inten    --      0.2414                 0.3506                 0.3323

                     52                     53                     54
                      A                      A                      A
 Frequencies --   1048.1875              1056.5961              1061.1734
 Red. masses --      1.4404                 1.4778                 1.4870
 Frc consts  --      0.9324                 0.9721                 0.9866
 IR Inten    --      1.5030                 2.6209                 0.5578

                     55                     56                     57
                      A                      A                      A
 Frequencies --   1066.9355              1113.9756              1122.5907
 Red. masses --      2.0110                 1.6282                 2.4397
 Frc consts  --      1.3487                 1.1905                 1.8114
 IR Inten    --      2.4571                 5.5045                 0.6044

                     58                     59                     60
                      A                      A                      A
 Frequencies --   1176.1257              1208.8217              1215.5585
 Red. masses --      1.1526                 1.1213                 1.7798
 Frc consts  --      0.9394                 0.9654                 1.5495
 IR Inten    --      0.0441                 1.1469                 1.7532

                     61                     62                     63
                      A                      A                      A
 Frequencies --   1233.4249              1243.6780              1255.0254
 Red. masses --      2.9530                 2.4690                 2.7829
 Frc consts  --      2.6469                 2.2500                 2.5826
 IR Inten    --      6.7110                30.8197                10.5244

                     64                     65                     66
                      A                      A                      A
 Frequencies --   1260.3047              1275.0194              1290.5477
 Red. masses --      2.6200                 2.9625                 2.9475
 Frc consts  --      2.4519                 2.8376                 2.8923
 IR Inten    --     11.9206                 5.9643                 8.0935

                     67                     68                     69
                      A                      A                      A
 Frequencies --   1305.1128              1343.3618              1361.7990
 Red. masses --      3.4829                 2.0761                 1.3384
 Frc consts  --      3.4953                 2.2075                 1.4624
 IR Inten    --      2.0887                 1.5183                 2.6005

                     70                     71                     72
                      A                      A                      A
 Frequencies --   1387.0083              1396.7709              1398.2057
 Red. masses --      1.5143                 1.2680                 1.2800
 Frc consts  --      1.7164                 1.4576                 1.4744
 IR Inten    --      0.5051                 5.8518                11.8904

                     73                     74                     75
                      A                      A                      A
 Frequencies --   1400.5544              1405.7202              1428.8585
 Red. masses --      1.2655                 1.3001                 1.2458
 Frc consts  --      1.4626                 1.5137                 1.4986
 IR Inten    --     13.5555                15.9841                11.2735

                     76                     77                     78
                      A                      A                      A
 Frequencies --   1432.2853              1473.4979              1475.8384
 Red. masses --      1.2247                 1.0504                 1.0449
 Frc consts  --      1.4802                 1.3438                 1.3409
 IR Inten    --     16.3328                 0.5010                 0.7315

                     79                     80                     81
                      A                      A                      A
 Frequencies --   1481.0820              1482.0705              1490.6097
 Red. masses --      1.0477                 1.0507                 1.0578
 Frc consts  --      1.3540                 1.3597                 1.3847
 IR Inten    --      1.5344                 0.3551                 0.7779

                     82                     83                     84
                      A                      A                      A
 Frequencies --   1493.5755              1496.2251              1500.4465
 Red. masses --      1.0506                 1.6994                 1.2062
 Frc consts  --      1.3808                 2.2415                 1.5999
 IR Inten    --      3.1761                 6.4116                 6.4401

                     85                     86                     87
                      A                      A                      A
 Frequencies --   1503.5077              1504.6755              1512.4830
 Red. masses --      1.1461                 1.0788                 1.0735
 Frc consts  --      1.5265                 1.4391                 1.4469
 IR Inten    --      7.9501                 9.7647                 1.4112

                     88                     89                     90
                      A                      A                      A
 Frequencies --   1514.8553              1524.8453              1529.9268
 Red. masses --      1.1683                 1.5261                 1.5423
 Frc consts  --      1.5796                 2.0906                 2.1269
 IR Inten    --     10.5423                29.3102                 4.0619

                     91                     92                     93
                      A                      A                      A
 Frequencies --   1540.4260              1656.7981              1676.4036
 Red. masses --      2.3238                 5.9595                 5.9446
 Frc consts  --      3.2488                 9.6383                 9.8431
 IR Inten    --     12.1330                 1.2613                 4.4737

                     94                     95                     96
                      A                      A                      A
 Frequencies --   3049.8154              3055.0086              3061.8396
 Red. masses --      1.0371                 1.0369                 1.0351
 Frc consts  --      5.6835                 5.7016                 5.7173
 IR Inten    --     15.7359                28.2487                12.1071

                     97                     98                     99
                      A                      A                      A
 Frequencies --   3065.2432              3066.4114              3079.4112
 Red. masses --      1.0393                 1.0359                 1.0368
 Frc consts  --      5.7533                 5.7388                 5.7924
 IR Inten    --     23.2859                10.7283                13.7794

                    100                    101                    102
                      A                      A                      A
 Frequencies --   3088.9925              3119.3326              3123.3873
 Red. masses --      1.0808                 1.1005                 1.0998
 Frc consts  --      6.0764                 6.3092                 6.3213
 IR Inten    --     12.7543                 0.8295                44.9434

                    103                    104                    105
                      A                      A                      A
 Frequencies --   3127.9502              3135.0689              3138.3365
 Red. masses --      1.1000                 1.1018                 1.1014
 Frc consts  --      6.3410                 6.3801                 6.3914
 IR Inten    --     25.9045                 6.1448                28.5355

                    106                    107                    108
                      A                      A                      A
 Frequencies --   3140.9404              3144.0274              3147.9535
 Red. masses --      1.1019                 1.1035                 1.1024
 Frc consts  --      6.4047                 6.4266                 6.4363
 IR Inten    --     28.1960                 8.6918                 3.6586

                    109                    110                    111
                      A                      A                      A
 Frequencies --   3148.2354              3155.3963              3169.4982
 Red. masses --      1.1017                 1.1024                 1.1024
 Frc consts  --      6.4336                 6.4667                 6.5248
 IR Inten    --     21.6601                22.6077                10.3908

                    112                    113                    114
                      A                      A                      A
 Frequencies --   3172.7752              3182.7382              3202.3308
 Red. masses --      1.1000                 1.0887                 1.0865
 Frc consts  --      6.5242                 6.4977                 6.5646
 IR Inten    --      4.3477                 6.3899                 0.6264

                    115                    116                    117
                      A                      A                      A
 Frequencies --   3212.4348              3219.7969              3228.8028
 Red. masses --      1.0906                 1.0941                 1.0983
 Frc consts  --      6.6308                 6.6830                 6.7461
 IR Inten    --      7.6810                 3.9989                12.9742

 - Thermochemistry -
 -------------------
 Temperature   298.150 Kelvin.  Pressure   1.00000 Atm.
 Atom     1 has atomic number  8 and mass  15.99491

 Molecular mass:   234.18579 amu.
 Principal axes and moments of inertia in atomic units:
                           1         2         3
     Eigenvalues --  2991.163254345.695525600.83865
           X            0.99966  -0.02418  -0.00971
           Y            0.02417   0.99971  -0.00050
           Z            0.00972   0.00027   0.99995
 This molecule is an asymmetric top.
 Rotational symmetry number  1.
 Warning -- assumption of classical behavior for rotation
           may cause significant error
 Rotational temperatures (Kelvin)      0.02896     0.01993     0.01546
 Rotational constants (GHZ):           0.60336     0.41529     0.32223
 Zero-point vibrational energy     958618.8 (Joules/Mol)
                                  229.11538 (Kcal/Mol)
 Warning -- explicit consideration of  30 degrees of freedom as
           vibrations may cause significant error
 Vibrational temperatures:     52.02    79.60    82.50   105.19   139.66
          (Kelvin)            187.07   226.04   308.30   329.38   343.71
                              350.85   396.51   405.32   411.89   419.35
                              437.00   446.87   464.24   476.08   512.12
                              553.88   570.46   590.07   599.93   602.81
                              653.84   693.26   709.12   815.79   854.73
                              910.21   931.04  1045.74  1085.85  1166.76
                             1191.00  1227.41  1269.05  1289.55  1343.30
                             1353.86  1372.03  1374.48  1379.11  1391.23
                             1395.56  1397.40  1446.54  1471.74  1472.19
                             1505.08  1508.11  1520.21  1526.79  1535.08
                             1602.76  1615.16  1692.18  1739.22  1748.92
                             1774.62  1789.38  1805.70  1813.30  1834.47
                             1856.81  1877.77  1932.80  1959.33  1995.60
                             2009.64  2011.71  2015.09  2022.52  2055.81
                             2060.74  2120.03  2123.40  2130.95  2132.37
                             2144.65  2148.92  2152.73  2158.81  2163.21
                             2164.89  2176.13  2179.54  2193.91  2201.22
                             2216.33  2383.76  2411.97  4388.00  4395.48
                             4405.30  4410.20  4411.88  4430.59  4444.37
                             4488.02  4493.86  4500.42  4510.66  4515.37
                             4519.11  4523.55  4529.20  4529.61  4539.91
                             4560.20  4564.92  4579.25  4607.44  4621.98
                             4632.57  4645.53

 Zero-point correction=                           0.365119 (Hartree/Particle)
 Thermal correction to Energy=                    0.383388
 Thermal correction to Enthalpy=                  0.384332
 Thermal correction to Gibbs Free Energy=         0.319558
 Sum of electronic and zero-point Energies=           -715.540524
 Sum of electronic and thermal Energies=              -715.522254
 Sum of electronic and thermal Enthalpies=            -715.521310
 Sum of electronic and thermal Free Energies=         -715.586084

                     E (Thermal)             CV                S
                      KCal/Mol        Cal/Mol-Kelvin    Cal/Mol-Kelvin
 Total                  240.580             71.910            136.329
 Electronic               0.000              0.000              1.377
 Translational            0.889              2.981             42.255
 Rotational               0.889              2.981             32.654
 Vibrational            238.802             65.949             60.043
 Vibration     1          0.594              1.982              5.459
 Vibration     2          0.596              1.975              4.617
 Vibration     3          0.596              1.975              4.547
 Vibration     4          0.599              1.967              4.068
 Vibration     5          0.603              1.951              3.512
 Vibration     6          0.612              1.923              2.946
 Vibration     7          0.621              1.895              2.584
 Vibration     8          0.644              1.819              2.007
 Vibration     9          0.652              1.797              1.887
 Vibration    10          0.657              1.781              1.811
 Vibration    11          0.659              1.773              1.775
 Vibration    12          0.677              1.719              1.561
 Vibration    13          0.681              1.707              1.523
 Vibration    14          0.684              1.699              1.496
 Vibration    15          0.687              1.690              1.465
 Vibration    16          0.695              1.667              1.396
 Vibration    17          0.699              1.654              1.359
 Vibration    18          0.708              1.630              1.297
 Vibration    19          0.713              1.614              1.256
 Vibration    20          0.731              1.563              1.140
 Vibration    21          0.754              1.502              1.020
 Vibration    22          0.763              1.478              0.976
 Vibration    23          0.774              1.448              0.926
 Vibration    24          0.780              1.433              0.902
 Vibration    25          0.782              1.429              0.895
 Vibration    26          0.813              1.351              0.782
 Vibration    27          0.838              1.290              0.705
 Vibration    28          0.849              1.266              0.676
 Vibration    29          0.923              1.103              0.510
 Vibration    30          0.952              1.044              0.460

 Optimization completed.
    -- Stationary point found.

 1\1\GINC-BD22\Freq\UM062X\def2TZVP\C15H24N1O1(2)\MIYAO\07-Jan-2025\0\\
 #P Geom=AllCheck Guess=TCheck SCRF=Check GenChk UM062X/def2TZVP Freq\\
 data_set_12-catalyst-31\\0,2\O,1.3577011872,-0.0125959595,1.660823905\
 N,1.213449253,-0.2321245172,0.420935884\C,2.0142568703,-1.2985383862,-
 0.2429305646\C,2.7763114311,-2.0592632458,0.8330094223\C,0.1866474951,
 0.5078689891,-0.3224844194\C,1.0829408828,-2.256154371,-0.9897592632\C
 ,3.0006991011,-0.6432251604,-1.2124355582\C,0.217332049,2.0406007709,-
 0.0372701258\H,2.0899532386,-2.5099831407,1.5483565698\H,3.446948086,-

 Normal termination of Gaussian 16 at Tue Jan  7 22:52:15 2025.
