 Gaussian 16, Revision C.01,
 Gaussian 16:  ES64L-G16RevC.01  3-Jul-2019

 ----------------------------------
 #p M062X/DEF2TZVP opt freq pop=NBO
 ----------------------------------

 -----------------------
 data_set_12-catalyst-32
 -----------------------
 Symbolic Z-matrix:
 Charge =  0 Multiplicity = 2

 SCF Done:  E(UM062X) =  -597.000606560     A.U. after   19 cycles
 SCF Done:  E(UM062X) =  -597.006640280     A.U. after   13 cycles
 SCF Done:  E(UM062X) =  -597.006983381     A.U. after   14 cycles
 SCF Done:  E(UM062X) =  -597.007054346     A.U. after   13 cycles
 SCF Done:  E(UM062X) =  -597.007060087     A.U. after   13 cycles
 SCF Done:  E(UM062X) =  -597.007059037     A.U. after   13 cycles
 SCF Done:  E(UM062X) =  -597.007059203     A.U. after   10 cycles
 SCF Done:  E(UM062X) =  -597.007061490     A.U. after   13 cycles
 SCF Done:  E(UM062X) =  -597.007057429     A.U. after   11 cycles
 SCF Done:  E(UM062X) =  -597.007056140     A.U. after   10 cycles
 SCF Done:  E(UM062X) =  -597.007061296     A.U. after   11 cycles
 SCF Done:  E(UM062X) =  -597.007055530     A.U. after   11 cycles
 SCF Done:  E(UM062X) =  -597.007056382     A.U. after    8 cycles
 SCF Done:  E(UM062X) =  -597.007059791     A.U. after   11 cycles
 SCF Done:  E(UM062X) =  -597.007055070     A.U. after   11 cycles
 SCF Done:  E(UM062X) =  -597.007059200     A.U. after   11 cycles
 SCF Done:  E(UM062X) =  -597.007054958     A.U. after   11 cycles
 Optimization completed on the basis of negligible forces.
    -- Stationary point found.

 1\1\GINC-BD22\FOpt\UM062X\def2TZVP\C10H18N1O2(2)\MIYAO\07-Jan-2025\0\\
 #p M062X/DEF2TZVP opt freq pop=NBO\\data_set_12-catalyst-32\\0,2\O,0.2
 350970299,-1.7492345516,0.152971164\N,0.5673877414,-0.5338637095,0.139
 7245636\C,-0.3614447638,0.5768887556,-0.1746551374\O,0.5307683042,1.61
 8269189,-0.5239591696\C,1.7658057458,1.4023705265,0.1405430436\C,1.978
 2313807,-0.107694506,0.084247774\C,2.7385867626,-0.6773739541,1.267356
 0789\C,2.5808198145,-0.556119276,-1.2444003867\H,2.5345260623,1.960267
 7609,-0.3913935441\H,1.7169111671,1.751819968,1.177948503\H,2.72557003

 Normal termination of Gaussian 16 at Tue Jan  7 18:35:28 2025.

 --------------------------------------------------------------------
 #P Geom=AllCheck Guess=TCheck SCRF=Check GenChk UM062X/def2TZVP Freq
 --------------------------------------------------------------------

 Structure from the checkpoint file:  "outputs/data_set_12-catalyst-32.chk"
 -----------------------
 data_set_12-catalyst-32
 -----------------------
 Charge =  0 Multiplicity = 2

                         Standard orientation:
 ---------------------------------------------------------------------
 Center     Atomic      Atomic             Coordinates (Angstroms)
 Number     Number       Type             X           Y           Z
 ---------------------------------------------------------------------
      1          8           0        0.236502   -1.384156    1.079744
      2          7           0        0.567018   -0.371879    0.406116
      3          6           0       -0.364091    0.388681   -0.459863
      4          8           0        0.525862    1.072069   -1.322124
      5          6           0        1.762654    1.252747   -0.650414
      6          6           0        1.977124   -0.044575    0.123891
      7          6           0        2.740874    0.121665    1.424457
      8          6           0        2.577458   -1.144034   -0.748057
      9          1           0        2.529411    1.431150   -1.402339
     10          1           0        1.715519    2.110639    0.029671
     11          1           0        2.729316   -0.817638    1.977017
     12          1           0        2.285134    0.893973    2.045173
     13          1           0        3.777015    0.396283    1.221704
     14          1           0        3.637921   -0.953710   -0.919349
     15          1           0        2.067490   -1.187676   -1.711279
     16          1           0        2.467551   -2.105719   -0.246552
     17          6           0       -1.188862    1.374020    0.368599
     18          6           0       -2.266441    0.670002    1.189627
     19          6           0       -3.185612   -0.137081    0.276355
     20          6           0       -2.388944   -1.170545   -0.515872
     21          6           0       -1.250946   -0.519381   -1.302512
     22          1           0       -0.518692    1.955403    1.005744
     23          1           0       -1.654103    2.065103   -0.340673
     24          1           0       -2.836954    1.410997    1.752321
     25          1           0       -1.794862    0.001354    1.914240
     26          1           0       -3.694530    0.544823   -0.414274
     27          1           0       -3.960927   -0.633544    0.862414
     28          1           0       -3.041277   -1.700826   -1.212217
     29          1           0       -1.974602   -1.908157    0.171709
     30          1           0       -1.660721    0.117896   -2.091856
     31          1           0       -0.620006   -1.269491   -1.782498
 ---------------------------------------------------------------------

 SCF Done:  E(UM062X) =  -597.007054958     A.U. after    1 cycles

 The electronic state is 2-A.
 Alpha  occ. eigenvalues --  -19.64146 -19.63102 -14.83567 -10.62940 -10.59434
 Alpha  occ. eigenvalues --  -10.58841 -10.53409 -10.53400 -10.53262 -10.53163
 Alpha  occ. eigenvalues --  -10.52632 -10.52477 -10.52256  -1.24153  -1.18250
 Alpha  occ. eigenvalues --   -0.96001  -0.94485  -0.87859  -0.84542  -0.81528
 Alpha  occ. eigenvalues --   -0.79479  -0.77302  -0.70664  -0.68758  -0.66520
 Alpha  occ. eigenvalues --   -0.63052  -0.58756  -0.57886  -0.56073  -0.55315
 Alpha  occ. eigenvalues --   -0.53061  -0.52402  -0.50865  -0.50061  -0.48549
 Alpha  occ. eigenvalues --   -0.47189  -0.46702  -0.46190  -0.45488  -0.44818
 Alpha  occ. eigenvalues --   -0.44544  -0.44187  -0.41460  -0.40665  -0.40197
 Alpha  occ. eigenvalues --   -0.38758  -0.37637  -0.37404  -0.33999  -0.32480
 Alpha  occ. eigenvalues --   -0.25946
 Alpha virt. eigenvalues --    0.05636   0.07492   0.08613   0.09580   0.09731
 Alpha virt. eigenvalues --    0.11075   0.11369   0.12635   0.12732   0.13577
 Alpha virt. eigenvalues --    0.14014   0.14599   0.14767   0.15400   0.15775

  Beta  occ. eigenvalues --  -19.64142 -19.62020 -14.82750 -10.62979 -10.59434
  Beta  occ. eigenvalues --  -10.58878 -10.53388 -10.53366 -10.53239 -10.53125
  Beta  occ. eigenvalues --  -10.52632 -10.52477 -10.52256  -1.21848  -1.17406
  Beta  occ. eigenvalues --   -0.94852  -0.94085  -0.87027  -0.84439  -0.80780
  Beta  occ. eigenvalues --   -0.79278  -0.77114  -0.70509  -0.68232  -0.66150
  Beta  occ. eigenvalues --   -0.62157  -0.57802  -0.57319  -0.55387  -0.53430
  Beta  occ. eigenvalues --   -0.52810  -0.51726  -0.50685  -0.49063  -0.47937
  Beta  occ. eigenvalues --   -0.46919  -0.46089  -0.45932  -0.44791  -0.44197
  Beta  occ. eigenvalues --   -0.44130  -0.43135  -0.40610  -0.40117  -0.38947
  Beta  occ. eigenvalues --   -0.38169  -0.37480  -0.37249  -0.33510  -0.31199
  Beta virt. eigenvalues --   -0.00583   0.05692   0.07504   0.08662   0.09632
  Beta virt. eigenvalues --    0.09760   0.11077   0.11368   0.12716   0.12774
  Beta virt. eigenvalues --    0.13531   0.14017   0.14620   0.14778   0.15457

 Mulliken charges and spin densities:
               1          2
     1  O   -0.391196   0.527591
     2  N    0.187297   0.454285
     3  C    0.166902  -0.015757
     4  O   -0.297020  -0.001300
     5  C   -0.055134   0.002768
     6  C    0.000115  -0.009797
     7  C   -0.418325   0.000360
     8  C   -0.475260   0.023187
     9  H    0.146286  -0.000596
    10  H    0.125232  -0.002269
    11  H    0.172897  -0.001127
    12  H    0.141510   0.001633
    13  H    0.147969  -0.000317
    14  H    0.148835   0.001168
    15  H    0.159575   0.000436
    16  H    0.175125  -0.002606
    17  C   -0.284602   0.007174
    18  C   -0.297509  -0.001236
    19  C   -0.274403   0.000981
    20  C   -0.295319  -0.001529
    21  C   -0.320409   0.009255
    22  H    0.134725   0.002461
    23  H    0.163462   0.002673
    24  H    0.139706   0.001049
    25  H    0.178389  -0.001091
    26  H    0.141585   0.000095
    27  H    0.142931  -0.000039
    28  H    0.137737   0.000868
    29  H    0.181668   0.000047
    30  H    0.167523  -0.000011
    31  H    0.149706   0.001644
 Sum of Mulliken charges =  -0.00000   1.00000

 Dipole moment (field-independent basis, Debye):
    X=              1.0782    Y=              1.5402    Z=             -0.4743  Tot=              1.9390
 Quadrupole moment (field-independent basis, Debye-Ang):
   XX=            -72.6499   YY=            -82.9191   ZZ=            -83.8307
   XY=              0.9292   XZ=              0.1535   YZ=              4.4749

  Exact polarizability:     143.225       2.151     115.963      -1.086       0.765     113.162
 Approx polarizability:     151.896       2.978     148.827      -1.171      -5.756     145.042

 Summary of Natural Population Analysis:

                                       Natural Population
                Natural  -----------------------------------------------
    Atom  No    Charge         Core      Valence    Rydberg      Total
 -----------------------------------------------------------------------
      O    1    0.04704      0.99993     2.94723    0.00579     3.95296
      N    2    0.24988      0.99970     2.22951    0.02092     3.25012
      C    3    0.18038      0.99957     1.80837    0.01167     2.81962
      O    4   -0.25327      0.99989     3.24194    0.01144     4.25327
      C    5   -0.03465      0.99960     2.02597    0.00908     3.03465
      C    6    0.01157      0.99968     1.98002    0.00874     2.98843
      C    7   -0.29531      0.99970     2.28917    0.00644     3.29531
      C    8   -0.29078      0.99970     2.28485    0.00623     3.29078
      H    9    0.09899      0.00000     0.40042    0.00059     0.40101
      H   10    0.08376      0.00000     0.41538    0.00085     0.41624
      H   11    0.11512      0.00000     0.38424    0.00064     0.38488
      H   12    0.10586      0.00000     0.39361    0.00054     0.39414
      H   13    0.10514      0.00000     0.39444    0.00042     0.39486
      H   14    0.10489      0.00000     0.39467    0.00044     0.39511
      H   15    0.10791      0.00000     0.39153    0.00056     0.39209
      H   16    0.11253      0.00000     0.38687    0.00060     0.38747
      C   17   -0.20343      0.99967     2.19564    0.00812     3.20343
      C   18   -0.20224      0.99973     2.19571    0.00679     3.20224
      C   19   -0.19647      0.99973     2.19024    0.00650     3.19647
      C   20   -0.20197      0.99972     2.19552    0.00672     3.20197
      C   21   -0.19907      0.99967     2.19095    0.00845     3.19907
      H   22    0.10425      0.00000     0.39511    0.00065     0.39575
      H   23    0.10620      0.00000     0.39301    0.00078     0.39380
      H   24    0.10445      0.00000     0.39498    0.00057     0.39555
      H   25    0.10821      0.00000     0.39096    0.00083     0.39179
      H   26    0.09405      0.00000     0.40505    0.00090     0.40595
      H   27    0.10505      0.00000     0.39444    0.00052     0.39495
      H   28    0.10372      0.00000     0.39572    0.00056     0.39628
      H   29    0.11221      0.00000     0.38702    0.00077     0.38779
      H   30    0.10703      0.00000     0.39227    0.00070     0.39297
      H   31    0.10895      0.00000     0.39042    0.00062     0.39105
 =======================================================================
   * Total *    0.50000     12.99630    36.87526    0.12844    50.00000

                      1                      2                      3
                      A                      A                      A
 Frequencies --     43.6110               102.3209               123.4984
 Red. masses --      4.1068                 4.2458                 3.5554
 Frc consts  --      0.0046                 0.0262                 0.0319
 IR Inten    --      2.3620                 1.8418                 1.0522

                      4                      5                      6
                      A                      A                      A
 Frequencies --    141.9058               202.8391               205.4184
 Red. masses --      2.7381                 2.2670                 1.1328
 Frc consts  --      0.0325                 0.0550                 0.0282
 IR Inten    --      0.4354                 0.2489                 0.1961

                      7                      8                      9
                      A                      A                      A
 Frequencies --    250.9109               268.4240               282.4193
 Red. masses --      1.4203                 1.7950                 1.9571
 Frc consts  --      0.0527                 0.0762                 0.0920
 IR Inten    --      0.3781                 0.4738                 3.9146

                     10                     11                     12
                      A                      A                      A
 Frequencies --    314.5072               340.8914               349.8276
 Red. masses --      3.4981                 2.1394                 3.3219
 Frc consts  --      0.2039                 0.1465                 0.2395
 IR Inten    --      8.7861                 1.1530                 1.7944

                     13                     14                     15
                      A                      A                      A
 Frequencies --    375.7584               382.7843               425.5133
 Red. masses --      1.8553                 3.7763                 2.5171
 Frc consts  --      0.1543                 0.3260                 0.2685
 IR Inten    --      0.4516                 2.1293                 1.9091

                     16                     17                     18
                      A                      A                      A
 Frequencies --    457.5558               503.8688               540.0743
 Red. masses --      3.4167                 1.7523                 3.6966
 Frc consts  --      0.4214                 0.2621                 0.6353
 IR Inten    --      1.0343                 1.1611                 6.7868

                     19                     20                     21
                      A                      A                      A
 Frequencies --    549.5963               594.6511               667.1566
 Red. masses --      3.3146                 3.0714                 4.1459
 Frc consts  --      0.5899                 0.6399                 1.0872
 IR Inten    --     12.6594                 3.6341                 3.5570

                     22                     23                     24
                      A                      A                      A
 Frequencies --    685.5193               789.6975               822.8530
 Red. masses --      5.2231                 1.4561                 2.4397
 Frc consts  --      1.4462                 0.5350                 0.9733
 IR Inten    --      2.1043                 1.1182                 5.0571

                     25                     26                     27
                      A                      A                      A
 Frequencies --    857.7822               868.6615               915.1058
 Red. masses --      2.5536                 1.9146                 1.9183
 Frc consts  --      1.1070                 0.8512                 0.9465
 IR Inten    --      1.9351                 3.5290                 5.0246

                     28                     29                     30
                      A                      A                      A
 Frequencies --    928.6121               952.8599               955.4523
 Red. masses --      2.0003                 1.4930                 1.5877
 Frc consts  --      1.0163                 0.7987                 0.8540
 IR Inten    --      8.4103                 1.2685                 1.2022

                     31                     32                     33
                      A                      A                      A
 Frequencies --    975.6304               977.8444               991.0063
 Red. masses --      1.5395                 2.0873                 1.6744
 Frc consts  --      0.8634                 1.1759                 0.9688
 IR Inten    --      2.2393                16.8973                 4.1132

                     34                     35                     36
                      A                      A                      A
 Frequencies --   1034.6889              1053.6959              1071.7270
 Red. masses --      1.6248                 1.6845                 2.7202
 Frc consts  --      1.0249                 1.1019                 1.8408
 IR Inten    --      1.3480                 2.0441                 8.6767

                     37                     38                     39
                      A                      A                      A
 Frequencies --   1093.8025              1108.8524              1117.6819
 Red. masses --      1.3604                 1.5865                 2.4387
 Frc consts  --      0.9590                 1.1493                 1.7949
 IR Inten    --      2.8625                 9.4765                44.0397

                     40                     41                     42
                      A                      A                      A
 Frequencies --   1158.4591              1175.1237              1197.5288
 Red. masses --      3.1269                 1.7229                 2.4729
 Frc consts  --      2.4725                 1.4017                 2.0894
 IR Inten    --     67.5799                 5.0247                22.9278

                     43                     44                     45
                      A                      A                      A
 Frequencies --   1222.5615              1232.1824              1260.8978
 Red. masses --      1.8011                 2.7774                 1.9300
 Frc consts  --      1.5861                 2.4845                 1.8079
 IR Inten    --      3.0666                13.2741                 9.4302

                     46                     47                     48
                      A                      A                      A
 Frequencies --   1279.4305              1299.8290              1300.9229
 Red. masses --      1.7006                 1.4297                 1.3225
 Frc consts  --      1.6402                 1.4232                 1.3187
 IR Inten    --      7.0380                10.2211                 0.7616

                     49                     50                     51
                      A                      A                      A
 Frequencies --   1307.6913              1328.7440              1359.2845
 Red. masses --      1.9221                 1.6770                 1.5896
 Frc consts  --      1.9366                 1.7445                 1.7305
 IR Inten    --      6.1011                27.9480                 3.0384

                     52                     53                     54
                      A                      A                      A
 Frequencies --   1373.0236              1385.4767              1391.6204
 Red. masses --      1.4672                 1.5051                 1.4618
 Frc consts  --      1.6297                 1.7022                 1.6679
 IR Inten    --      0.2191                 4.7636                 2.8874

                     55                     56                     57
                      A                      A                      A
 Frequencies --   1393.0586              1400.2405              1402.8785
 Red. masses --      1.4337                 1.5573                 1.5318
 Frc consts  --      1.6392                 1.7989                 1.7762
 IR Inten    --      8.9655                 9.5795                 8.0325

                     58                     59                     60
                      A                      A                      A
 Frequencies --   1415.4036              1472.7511              1477.3096
 Red. masses --      1.2825                 1.0829                 1.0501
 Frc consts  --      1.5138                 1.3838                 1.3503
 IR Inten    --      8.1354                 2.0629                 3.2889

                     61                     62                     63
                      A                      A                      A
 Frequencies --   1484.2357              1488.7808              1489.0469
 Red. masses --      1.1231                 1.0905                 1.0524
 Frc consts  --      1.4578                 1.4241                 1.3748
 IR Inten    --      0.2729                10.2110                 0.7099

                     64                     65                     66
                      A                      A                      A
 Frequencies --   1493.7069              1500.9287              1504.9911
 Red. masses --      1.0799                 1.0833                 1.1517
 Frc consts  --      1.4195                 1.4378                 1.5369
 IR Inten    --      7.9162                11.7284                 1.4082

                     67                     68                     69
                      A                      A                      A
 Frequencies --   1507.4307              1520.3112              1544.8382
 Red. masses --      1.0749                 1.1101                 6.1255
 Frc consts  --      1.4391                 1.5118                 8.6130
 IR Inten    --     14.5901                 1.5159                 7.9460

                     70                     71                     72
                      A                      A                      A
 Frequencies --   3038.6474              3042.9291              3056.8428
 Red. masses --      1.0682                 1.0677                 1.0618
 Frc consts  --      5.8114                 5.8250                 5.8459
 IR Inten    --     29.3204                28.8107                16.5136

                     73                     74                     75
                      A                      A                      A
 Frequencies --   3063.4381              3064.1206              3068.1937
 Red. masses --      1.0627                 1.0341                 1.0353
 Frc consts  --      5.8758                 5.7202                 5.7420
 IR Inten    --     16.6963                14.5755                17.1425

                     76                     77                     78
                      A                      A                      A
 Frequencies --   3068.6118              3079.6995              3104.0161
 Red. masses --      1.0612                 1.0644                 1.0948
 Frc consts  --      5.8876                 5.9478                 6.2150
 IR Inten    --     14.2042                28.8171                43.0142

                     79                     80                     81
                      A                      A                      A
 Frequencies --   3106.4566              3116.1153              3116.2731
 Red. masses --      1.1006                 1.1015                 1.1049
 Frc consts  --      6.2577                 6.3015                 6.3218
 IR Inten    --     23.2751                 6.8365                28.4532

                     82                     83                     84
                      A                      A                      A
 Frequencies --   3135.0168              3139.4832              3141.5553
 Red. masses --      1.1010                 1.0985                 1.1032
 Frc consts  --      6.3755                 6.3793                 6.4151
 IR Inten    --     17.0197                 8.1186                 6.3740

                     85                     86                     87
                      A                      A                      A
 Frequencies --   3145.0733              3151.0230              3154.1486
 Red. masses --      1.1026                 1.1033                 1.1023
 Frc consts  --      6.4260                 6.4543                 6.4615
 IR Inten    --     31.8077                 4.5286                 9.6222

 - Thermochemistry -
 -------------------
 Temperature   298.150 Kelvin.  Pressure   1.00000 Atm.
 Atom     1 has atomic number  8 and mass  15.99491

 Molecular mass:   184.13375 amu.
 Principal axes and moments of inertia in atomic units:
                           1         2         3
     Eigenvalues --  1192.281062969.628343035.26059
           X            0.99999  -0.00319   0.00098
           Y            0.00197   0.80119   0.59841
           Z           -0.00270  -0.59840   0.80119
 This molecule is an asymmetric top.
 Rotational symmetry number  1.
 Warning -- assumption of classical behavior for rotation
           may cause significant error
 Rotational temperatures (Kelvin)      0.07265     0.02917     0.02854
 Rotational constants (GHZ):           1.51369     0.60773     0.59459
 Zero-point vibrational energy     726643.7 (Joules/Mol)
                                  173.67201 (Kcal/Mol)
 Warning -- explicit consideration of  20 degrees of freedom as
           vibrations may cause significant error
 Vibrational temperatures:     62.75   147.22   177.69   204.17   291.84
          (Kelvin)            295.55   361.00   386.20   406.34   452.51
                              490.47   503.32   540.63   550.74   612.22
                              658.32   724.95   777.05   790.75   855.57
                              959.89   986.31  1136.20  1183.90  1234.16
                             1249.81  1316.63  1336.07  1370.95  1374.68
                             1403.71  1406.90  1425.84  1488.69  1516.03
                             1541.98  1573.74  1595.39  1608.09  1666.76
                             1690.74  1722.98  1758.99  1772.84  1814.15
                             1840.82  1870.16  1871.74  1881.48  1911.77
                             1955.71  1975.47  1993.39  2002.23  2004.30
                             2014.63  2018.43  2036.45  2118.96  2125.52
                             2135.48  2142.02  2142.41  2149.11  2159.50
                             2165.35  2168.86  2187.39  2222.68  4371.94
                             4378.10  4398.11  4407.60  4408.59  4414.45
                             4415.05  4431.00  4465.99  4469.50  4483.39
                             4483.62  4510.59  4517.02  4520.00  4525.06
                             4533.62  4538.12

 Zero-point correction=                           0.276764 (Hartree/Particle)
 Thermal correction to Energy=                    0.289391
 Thermal correction to Enthalpy=                  0.290335
 Thermal correction to Gibbs Free Energy=         0.238098
 Sum of electronic and zero-point Energies=           -596.730291
 Sum of electronic and thermal Energies=              -596.717664
 Sum of electronic and thermal Enthalpies=            -596.716720
 Sum of electronic and thermal Free Energies=         -596.768956

                     E (Thermal)             CV                S
                      KCal/Mol        Cal/Mol-Kelvin    Cal/Mol-Kelvin
 Total                  181.596             50.357            109.942
 Electronic               0.000              0.000              1.377
 Translational            0.889              2.981             41.538
 Rotational               0.889              2.981             30.753
 Vibrational            179.818             44.396             36.274
 Vibration     1          0.595              1.980              5.088
 Vibration     2          0.604              1.947              3.410
 Vibration     3          0.610              1.929              3.045
 Vibration     4          0.615              1.911              2.778
 Vibration     5          0.639              1.836              2.107
 Vibration     6          0.640              1.832              2.084
 Vibration     7          0.663              1.761              1.724
 Vibration     8          0.673              1.731              1.606
 Vibration     9          0.681              1.706              1.519
 Vibration    10          0.702              1.646              1.339
 Vibration    11          0.720              1.594              1.208
 Vibration    12          0.727              1.576              1.167
 Vibration    13          0.747              1.522              1.056
 Vibration    14          0.752              1.507              1.028
 Vibration    15          0.787              1.415              0.873
 Vibration    16          0.816              1.344              0.773
 Vibration    17          0.859              1.241              0.649
 Vibration    18          0.895              1.161              0.565
 Vibration    19          0.905              1.141              0.545
 Vibration    20          0.952              1.043              0.459

 Optimization completed.
    -- Stationary point found.

 1\1\GINC-BD22\Freq\UM062X\def2TZVP\C10H18N1O2(2)\MIYAO\07-Jan-2025\0\\
 #P Geom=AllCheck Guess=TCheck SCRF=Check GenChk UM062X/def2TZVP Freq\\
 data_set_12-catalyst-32\\0,2\O,0.2350970299,-1.7492345516,0.152971164\
 N,0.5673877414,-0.5338637095,0.1397245636\C,-0.3614447638,0.5768887556
 ,-0.1746551374\O,0.5307683042,1.618269189,-0.5239591696\C,1.7658057458
 ,1.4023705265,0.1405430436\C,1.9782313807,-0.107694506,0.084247774\C,2
 .7385867626,-0.6773739541,1.2673560789\C,2.5808198145,-0.556119276,-1.
 2444003867\H,2.5345260623,1.9602677609,-0.3913935441\H,1.7169111671,1.

 Normal termination of Gaussian 16 at Tue Jan  7 19:52:07 2025.
