 Gaussian 16, Revision C.01,
 Gaussian 16:  ES64L-G16RevC.01  3-Jul-2019

 ----------------------------------
 #p M062X/DEF2TZVP opt freq pop=NBO
 ----------------------------------

 -----------------------
 data_set_12-catalyst-33
 -----------------------
 Symbolic Z-matrix:
 Charge =  0 Multiplicity = 2

 SCF Done:  E(UM062X) =  -751.820904134     A.U. after   24 cycles
 SCF Done:  E(UM062X) =  -751.827124251     A.U. after   17 cycles
 SCF Done:  E(UM062X) =  -751.827479937     A.U. after   17 cycles
 SCF Done:  E(UM062X) =  -751.827424529     A.U. after   19 cycles
 SCF Done:  E(UM062X) =  -751.827591303     A.U. after   16 cycles
 SCF Done:  E(UM062X) =  -751.827607614     A.U. after   15 cycles
 SCF Done:  E(UM062X) =  -751.827629152     A.U. after   15 cycles
 SCF Done:  E(UM062X) =  -751.827630574     A.U. after   19 cycles
 SCF Done:  E(UM062X) =  -751.827633262     A.U. after   16 cycles
 SCF Done:  E(UM062X) =  -751.827632971     A.U. after    9 cycles
 SCF Done:  E(UM062X) =  -751.827632525     A.U. after   10 cycles
 SCF Done:  E(UM062X) =  -751.827633451     A.U. after    9 cycles
 SCF Done:  E(UM062X) =  -751.827633503     A.U. after    8 cycles
 Optimization completed.
    -- Stationary point found.

 1\1\GINC-BD23\FOpt\UM062X\def2TZVP\C14H22N1O2(2)\MIYAO\07-Jan-2025\0\\
 #p M062X/DEF2TZVP opt freq pop=NBO\\data_set_12-catalyst-33\\0,2\O,-1.
 3985908887,0.4194171225,-1.4343628741\N,-1.1636942838,0.3904362767,-0.
 1839489031\C,-1.9374302334,-0.5985276343,0.6145651341\C,-1.6321651692,
 -0.458825051,2.0993476523\C,0.1049276625,0.992053451,0.2699942994\C,-3
 .4174811164,-0.3423466083,0.3502385068\C,-1.5370870397,-2.0151543071,0
 .1574159381\C,0.3443871793,2.3227204103,-0.4580930346\H,-1.8351861173,
 0.5542270318,2.4496957209\H,-0.5982855633,-0.7186461037,2.3318787669\H

 Normal termination of Gaussian 16 at Tue Jan  7 19:42:21 2025.

 --------------------------------------------------------------------
 #P Geom=AllCheck Guess=TCheck SCRF=Check GenChk UM062X/def2TZVP Freq
 --------------------------------------------------------------------

 Structure from the checkpoint file:  "outputs/data_set_12-catalyst-33.chk"
 -----------------------
 data_set_12-catalyst-33
 -----------------------
 Charge =  0 Multiplicity = 2

                         Standard orientation:
 ---------------------------------------------------------------------
 Center     Atomic      Atomic             Coordinates (Angstroms)
 Number     Number       Type             X           Y           Z
 ---------------------------------------------------------------------
      1          8           0       -1.380371    0.341768   -1.475643
      2          7           0       -1.179857    0.325253   -0.219031
      3          6           0       -1.922055   -0.703694    0.558626
      4          6           0       -1.666961   -0.548032    2.051268
      5          6           0        0.041440    0.993714    0.269847
      6          6           0       -3.405569   -0.526890    0.252075
      7          6           0       -1.433843   -2.096877    0.115026
      8          6           0        0.230099    2.335339   -0.453047
      9          1           0       -1.933636    0.452700    2.394279
     10          1           0       -0.627704   -0.752294    2.313391
     11          1           0       -3.592387   -0.610170   -0.814947
     12          1           0       -3.745939    0.450858    0.596960
     13          1           0       -3.975408   -1.301167    0.766733
     14          8           0       -1.738104   -2.407783   -1.218279
     15          1           0       -1.936031   -2.840256    0.739717
     16          1           0       -0.355646   -2.168667    0.305665
     17          6           0        1.471982    3.040794    0.083437
     18          6           0       -1.006153    3.212779   -0.284583
     19          1           0       -2.293910   -1.261891    2.585277
     20          1           0       -0.112879    1.211289    1.327425
     21          1           0        1.376646    3.229155    1.156850
     22          1           0        1.598853    4.003977   -0.411567
     23          1           0        2.376163    2.453996   -0.077506
     24          1           0       -1.201273    3.397184    0.776217
     25          1           0       -1.887833    2.749317   -0.724626
     26          1           0       -0.853236    4.179682   -0.765352
     27          6           0        1.235065    0.068468    0.137979
     28          6           0        2.017235   -0.231537    1.247225
     29          6           0        3.112017   -1.079001    1.134134
     30          6           0        3.430350   -1.637778   -0.094433
     31          6           0        2.654929   -1.339464   -1.208472
     32          6           0        1.566269   -0.488560   -1.095549
     33          1           0        0.369993    2.120342   -1.514315
     34          1           0        1.769155    0.204230    2.209127
     35          1           0        3.712287   -1.303980    2.006222
     36          1           0        4.278526   -2.303592   -0.185330
     37          1           0        2.898406   -1.774205   -2.169220
     38          1           0        0.956351   -0.262403   -1.961842
     39          1           0       -1.562521   -1.618336   -1.749770
 ---------------------------------------------------------------------

 SCF Done:  E(UM062X) =  -751.827633503     A.U. after    1 cycles

 The electronic state is 2-A.
 Alpha  occ. eigenvalues --  -19.63692 -19.60762 -14.84840 -10.59132 -10.58831
 Alpha  occ. eigenvalues --  -10.57919 -10.55719 -10.55017 -10.54914 -10.54767
 Alpha  occ. eigenvalues --  -10.54674 -10.54564 -10.54441 -10.54337 -10.52608
 Alpha  occ. eigenvalues --  -10.52596 -10.52279  -1.24077  -1.13520  -0.98839
 Alpha  occ. eigenvalues --   -0.96353  -0.92981  -0.87085  -0.85197  -0.84572
 Alpha  occ. eigenvalues --   -0.79563  -0.77914  -0.77471  -0.75777  -0.70255
 Alpha  occ. eigenvalues --   -0.68889  -0.66369  -0.64185  -0.60944  -0.59691
 Alpha  occ. eigenvalues --   -0.57579  -0.56967  -0.55120  -0.53648  -0.53013
 Alpha  occ. eigenvalues --   -0.52234  -0.51490  -0.50316  -0.49503  -0.49111
 Alpha  occ. eigenvalues --   -0.48071  -0.47294  -0.46659  -0.46210  -0.45253
 Alpha  occ. eigenvalues --   -0.45016  -0.44541  -0.43761  -0.42424  -0.41861
 Alpha  occ. eigenvalues --   -0.40951  -0.40152  -0.39781  -0.39400  -0.39044
 Alpha  occ. eigenvalues --   -0.34801  -0.34045  -0.31712  -0.30989  -0.26726
 Alpha virt. eigenvalues --    0.01030   0.01381   0.04953   0.07372   0.08032
 Alpha virt. eigenvalues --    0.08279   0.09559   0.10492   0.10662   0.11179
 Alpha virt. eigenvalues --    0.11751   0.12496   0.13091   0.13178   0.14001

  Beta  occ. eigenvalues --  -19.62687 -19.60743 -14.84004 -10.59166 -10.58864
  Beta  occ. eigenvalues --  -10.57883 -10.55671 -10.55013 -10.54914 -10.54765
  Beta  occ. eigenvalues --  -10.54672 -10.54553 -10.54437 -10.54337 -10.52610
  Beta  occ. eigenvalues --  -10.52577 -10.52280  -1.21232  -1.13399  -0.98217
  Beta  occ. eigenvalues --   -0.95376  -0.92845  -0.86796  -0.85162  -0.83528
  Beta  occ. eigenvalues --   -0.79379  -0.77883  -0.77277  -0.75064  -0.70193
  Beta  occ. eigenvalues --   -0.68612  -0.66022  -0.63465  -0.60079  -0.59025
  Beta  occ. eigenvalues --   -0.57035  -0.55709  -0.54550  -0.53105  -0.52691
  Beta  occ. eigenvalues --   -0.51777  -0.50826  -0.50121  -0.49407  -0.48572
  Beta  occ. eigenvalues --   -0.47125  -0.46971  -0.46515  -0.45554  -0.45116
  Beta  occ. eigenvalues --   -0.44503  -0.44207  -0.42679  -0.41970  -0.41076
  Beta  occ. eigenvalues --   -0.40792  -0.40015  -0.39237  -0.38955  -0.38026
  Beta  occ. eigenvalues --   -0.34116  -0.33074  -0.31675  -0.30614
  Beta virt. eigenvalues --   -0.02643   0.01147   0.01891   0.04950   0.07407
  Beta virt. eigenvalues --    0.08063   0.08254   0.09583   0.10484   0.10722
  Beta virt. eigenvalues --    0.11176   0.11766   0.12521   0.13085   0.13195

 Mulliken charges and spin densities:
               1          2
     1  O   -0.437830   0.489993
     2  N    0.223408   0.482470
     3  C   -0.049149  -0.018021
     4  C   -0.488098  -0.000128
     5  C   -0.346944  -0.031237
     6  C   -0.380879   0.005131
     7  C   -0.081240   0.017636
     8  C   -0.047199   0.006039
     9  H    0.172893  -0.000804
    10  H    0.161994  -0.000385
    11  H    0.173785  -0.001046
    12  H    0.144952   0.001267
    13  H    0.143521  -0.001122
    14  O   -0.468151   0.008444
    15  H    0.133574   0.005503
    16  H    0.158626   0.001624
    17  C   -0.449353  -0.001306
    18  C   -0.447722   0.003876
    19  H    0.166206  -0.001028
    20  H    0.213967  -0.001849
    21  H    0.139056   0.000199
    22  H    0.150091   0.000269
    23  H    0.169688  -0.000026
    24  H    0.133346  -0.000485
    25  H    0.170499  -0.002005
    26  H    0.147122  -0.000231
    27  C    0.123589   0.037737
    28  C   -0.201718   0.005601
    29  C   -0.136381  -0.001794
    30  C   -0.149787   0.004246
    31  C   -0.129131  -0.003543
    32  C   -0.220167   0.000150
    33  H    0.156170  -0.001215
    34  H    0.165156  -0.000058
    35  H    0.145237   0.000386
    36  H    0.145209  -0.000072
    37  H    0.147386   0.000118
    38  H    0.207116  -0.001462
    39  H    0.341157  -0.002872
 Sum of Mulliken charges =  -0.00000   1.00000

 Dipole moment (field-independent basis, Debye):
    X=              1.4321    Y=              1.2605    Z=              3.0746  Tot=              3.6184
 Quadrupole moment (field-independent basis, Debye-Ang):
   XX=           -103.5547   YY=           -109.2745   ZZ=           -102.6573
   XY=             -5.2471   XZ=             -5.7223   YZ=             -2.8095

  Exact polarizability:     187.940     -16.678     168.275       2.640       2.421     161.069
 Approx polarizability:     214.323     -21.591     199.668       7.913       5.744     233.465

 Summary of Natural Population Analysis:

                                       Natural Population
                Natural  -----------------------------------------------
    Atom  No    Charge         Core      Valence    Rydberg      Total
 -----------------------------------------------------------------------
      O    1    0.00642      0.99993     2.98830    0.00535     3.99358
      N    2    0.27801      0.99972     2.20317    0.01910     3.22199
      C    3    0.02101      0.99965     1.97078    0.00855     2.97899
      C    4   -0.30815      0.99970     2.30202    0.00643     3.30815
      C    5   -0.05626      0.99956     2.04591    0.01078     3.05626
      C    6   -0.29597      0.99970     2.28956    0.00671     3.29597
      C    7   -0.02001      0.99959     2.00924    0.01117     3.02001
      C    8   -0.10400      0.99971     2.09616    0.00813     3.10400
      H    9    0.10728      0.00000     0.39219    0.00052     0.39272
      H   10    0.10776      0.00000     0.39161    0.00062     0.39224
      H   11    0.11892      0.00000     0.38048    0.00061     0.38108
      H   12    0.10370      0.00000     0.39576    0.00055     0.39630
      H   13    0.10497      0.00000     0.39460    0.00044     0.39503
      O   14   -0.35260      0.99991     3.34609    0.00660     4.35260
      H   15    0.09060      0.00000     0.40871    0.00069     0.40940
      H   16    0.08332      0.00000     0.41577    0.00091     0.41668
      C   17   -0.29994      0.99973     2.29521    0.00500     3.29994
      C   18   -0.29976      0.99973     2.29492    0.00511     3.29976
      H   19    0.11166      0.00000     0.38788    0.00046     0.38834
      H   20    0.10646      0.00000     0.39185    0.00169     0.39354
      H   21    0.09787      0.00000     0.40154    0.00058     0.40213
      H   22    0.10660      0.00000     0.39300    0.00040     0.39340
      H   23    0.10910      0.00000     0.39048    0.00042     0.39090
      H   24    0.09672      0.00000     0.40271    0.00057     0.40328
      H   25    0.11201      0.00000     0.38746    0.00053     0.38799
      H   26    0.10546      0.00000     0.39414    0.00040     0.39454
      C   27   -0.00473      0.99952     1.99345    0.01177     3.00473
      C   28   -0.10798      0.99955     2.09924    0.00918     3.10798
      C   29   -0.10259      0.99961     2.09367    0.00931     3.10259
      C   30   -0.10439      0.99961     2.09577    0.00900     3.10439
      C   31   -0.09755      0.99961     2.08906    0.00888     3.09755
      C   32   -0.10800      0.99955     2.09900    0.00945     3.10800
      H   33    0.10867      0.00000     0.39060    0.00074     0.39133
      H   34    0.10496      0.00000     0.39443    0.00061     0.39504
      H   35    0.10777      0.00000     0.39170    0.00053     0.39223
      H   36    0.10777      0.00000     0.39173    0.00050     0.39223
      H   37    0.10844      0.00000     0.39102    0.00054     0.39156
      H   38    0.11554      0.00000     0.38360    0.00085     0.38446
      H   39    0.24092      0.00000     0.25717    0.00191     0.25908
 =======================================================================
   * Total *    0.50000     16.99441    46.83999    0.16560    64.00000

                      1                      2                      3
                      A                      A                      A
 Frequencies --     27.6874                47.0419                60.0147
 Red. masses --      5.0269                 4.3812                 3.6149
 Frc consts  --      0.0023                 0.0057                 0.0077
 IR Inten    --      0.5246                 0.5974                 0.3594

                      4                      5                      6
                      A                      A                      A
 Frequencies --     72.4928                92.8482               133.0550
 Red. masses --      2.7643                 3.4019                 3.4198
 Frc consts  --      0.0086                 0.0173                 0.0357
 IR Inten    --      0.1110                 0.2259                 1.3490

                      7                      8                      9
                      A                      A                      A
 Frequencies --    151.6206               184.0829               210.0857
 Red. masses --      3.4175                 2.5565                 1.8884
 Frc consts  --      0.0463                 0.0510                 0.0491
 IR Inten    --      1.0800                 5.0195                 4.3728

                     10                     11                     12
                      A                      A                      A
 Frequencies --    220.6552               240.9610               244.6125
 Red. masses --      1.1884                 2.1342                 2.7296
 Frc consts  --      0.0341                 0.0730                 0.0962
 IR Inten    --      0.1532                 0.2363                 0.5903

                     13                     14                     15
                      A                      A                      A
 Frequencies --    246.6227               279.7564               300.7376
 Red. masses --      1.3828                 2.6063                 2.2806
 Frc consts  --      0.0496                 0.1202                 0.1215
 IR Inten    --      0.5264                 1.0765                 0.6159

                     16                     17                     18
                      A                      A                      A
 Frequencies --    314.7424               333.4129               342.8913
 Red. masses --      3.1979                 1.0805                 2.9486
 Frc consts  --      0.1866                 0.0708                 0.2043
 IR Inten    --      1.0343                 0.5442                 1.0022

                     19                     20                     21
                      A                      A                      A
 Frequencies --    358.4700               373.7002               407.2890
 Red. masses --      2.9756                 3.0436                 3.2815
 Frc consts  --      0.2253                 0.2504                 0.3207
 IR Inten    --      6.5173                 2.2591                 4.9498

                     22                     23                     24
                      A                      A                      A
 Frequencies --    416.3804               432.4393               440.8886
 Red. masses --      2.8551                 2.6894                 2.4133
 Frc consts  --      0.2916                 0.2963                 0.2764
 IR Inten    --      1.4894                 3.1247                 3.7828

                     25                     26                     27
                      A                      A                      A
 Frequencies --    470.3127               501.2320               546.0213
 Red. masses --      1.2928                 2.7626                 2.8607
 Frc consts  --      0.1685                 0.4089                 0.5025
 IR Inten    --     86.0283                 9.7095                 1.3268

                     28                     29                     30
                      A                      A                      A
 Frequencies --    584.1153               591.4082               631.9635
 Red. masses --      3.9078                 3.8006                 6.3382
 Frc consts  --      0.7856                 0.7832                 1.4914
 IR Inten    --      6.5943                22.2962                 0.1735

                     31                     32                     33
                      A                      A                      A
 Frequencies --    653.7565               728.4415               776.0935
 Red. masses --      5.5011                 1.6410                 2.3700
 Frc consts  --      1.3853                 0.5130                 0.8411
 IR Inten    --      9.4589                45.5945                34.2958

                     34                     35                     36
                      A                      A                      A
 Frequencies --    819.2490               838.1906               874.9913
 Red. masses --      2.9948                 3.3214                 2.5250
 Frc consts  --      1.1843                 1.3749                 1.1390
 IR Inten    --      4.6544                 2.4167                 1.0838

                     37                     38                     39
                      A                      A                      A
 Frequencies --    881.8097               891.4658               914.5098
 Red. masses --      1.2769                 2.4221                 1.8083
 Frc consts  --      0.5850                 1.1341                 0.8911
 IR Inten    --      0.1676                 1.6373                 6.0919

                     40                     41                     42
                      A                      A                      A
 Frequencies --    940.6858               954.5035               963.1815
 Red. masses --      1.1663                 1.4881                 1.3520
 Frc consts  --      0.6081                 0.7988                 0.7390
 IR Inten    --      4.1966                 4.3526                 1.2917

                     43                     44                     45
                      A                      A                      A
 Frequencies --    975.7712               983.7291              1006.7179
 Red. masses --      1.7274                 1.5380                 1.3578
 Frc consts  --      0.9690                 0.8769                 0.8108
 IR Inten    --      4.1865                 1.9099                 0.1392

                     46                     47                     48
                      A                      A                      A
 Frequencies --   1010.5635              1022.4886              1026.6172
 Red. masses --      1.4169                 5.6868                 1.3345
 Frc consts  --      0.8525                 3.5030                 0.8287
 IR Inten    --      0.4309                 0.5324                 0.2456

                     49                     50                     51
                      A                      A                      A
 Frequencies --   1041.4411              1065.1377              1094.5898
 Red. masses --      1.4926                 2.1359                 2.1759
 Frc consts  --      0.9538                 1.4277                 1.5360
 IR Inten    --      3.3732                 2.6762                 1.2029

                     52                     53                     54
                      A                      A                      A
 Frequencies --   1113.6840              1145.5272              1154.0446
 Red. masses --      1.6823                 4.2025                 2.1368
 Frc consts  --      1.2293                 3.2491                 1.6767
 IR Inten    --     10.9279                93.5416                 1.3052

                     55                     56                     57
                      A                      A                      A
 Frequencies --   1170.0787              1178.2793              1201.1154
 Red. masses --      2.0130                 1.1968                 1.7342
 Frc consts  --      1.6237                 0.9789                 1.4741
 IR Inten    --      2.8402                 0.5249                14.3979

                     58                     59                     60
                      A                      A                      A
 Frequencies --   1206.0119              1211.1302              1233.6478
 Red. masses --      1.2396                 1.4995                 2.3855
 Frc consts  --      1.0623                 1.2960                 2.1390
 IR Inten    --      7.3737                 9.2175                 0.9652

                     61                     62                     63
                      A                      A                      A
 Frequencies --   1249.0677              1252.6359              1280.7647
 Red. masses --      2.8180                 2.7516                 2.0897
 Frc consts  --      2.5904                 2.5438                 2.0196
 IR Inten    --      2.4232                 1.7982                 3.6148

                     64                     65                     66
                      A                      A                      A
 Frequencies --   1290.6191              1318.8866              1340.7445
 Red. masses --      1.5881                 1.7962                 2.2480
 Frc consts  --      1.5586                 1.8408                 2.3809
 IR Inten    --     29.2667                 1.0017                 2.0026

                     67                     68                     69
                      A                      A                      A
 Frequencies --   1349.8216              1368.2389              1380.6492
 Red. masses --      1.4562                 1.3604                 1.2960
 Frc consts  --      1.5632                 1.5005                 1.4555
 IR Inten    --      0.3175                 2.8280                 6.0136

                     70                     71                     72
                      A                      A                      A
 Frequencies --   1384.7522              1402.2114              1402.5210
 Red. masses --      1.3745                 1.2989                 1.3539
 Frc consts  --      1.5529                 1.5047                 1.5691
 IR Inten    --      0.4783                 2.9261                20.7814

                     73                     74                     75
                      A                      A                      A
 Frequencies --   1418.6358              1421.7245              1452.5824
 Red. masses --      1.2537                 1.2479                 1.2291
 Frc consts  --      1.4865                 1.4861                 1.5280
 IR Inten    --     17.3380                10.5328                58.6794

                     76                     77                     78
                      A                      A                      A
 Frequencies --   1480.4715              1485.0300              1487.3647
 Red. masses --      1.2201                 1.1653                 1.3153
 Frc consts  --      1.5756                 1.5141                 1.7143
 IR Inten    --      1.3035                 8.7426                 4.0463

                     79                     80                     81
                      A                      A                      A
 Frequencies --   1493.6577              1496.8540              1498.3121
 Red. masses --      1.2452                 1.3334                 1.7716
 Frc consts  --      1.6367                 1.7602                 2.3432
 IR Inten    --      3.1508                 4.4342                12.9895

                     82                     83                     84
                      A                      A                      A
 Frequencies --   1503.4812              1506.9642              1508.7236
 Red. masses --      1.0706                 1.1238                 1.1084
 Frc consts  --      1.4258                 1.5036                 1.4865
 IR Inten    --      4.4487                 4.4603                 0.1204

                     85                     86                     87
                      A                      A                      A
 Frequencies --   1515.5408              1519.7523              1540.9401
 Red. masses --      1.0573                 1.0734                 2.3317
 Frc consts  --      1.4309                 1.4606                 3.2621
 IR Inten    --     14.9157                14.7379                10.8598

                     88                     89                     90
                      A                      A                      A
 Frequencies --   1658.2529              1676.1738              3031.7313
 Red. masses --      5.9780                 5.9448                 1.0635
 Frc consts  --      9.6851                 9.8407                 5.7595
 IR Inten    --      1.6285                 3.8038                32.6706

                     91                     92                     93
                      A                      A                      A
 Frequencies --   3050.0791              3053.1388              3066.6892
 Red. masses --      1.0418                 1.0421                 1.0361
 Frc consts  --      5.7100                 5.7233                 5.7408
 IR Inten    --     17.3636                22.2146                 9.2236

                     94                     95                     96
                      A                      A                      A
 Frequencies --   3072.5121              3089.6268              3091.1778
 Red. masses --      1.0387                 1.0993                 1.0809
 Frc consts  --      5.7774                 6.1828                 6.0853
 IR Inten    --     14.3472                27.4254                 3.3380

                     97                     98                     99
                      A                      A                      A
 Frequencies --   3113.9917              3121.1945              3129.7000
 Red. masses --      1.0850                 1.0963                 1.0954
 Frc consts  --      6.1991                 6.2925                 6.3217
 IR Inten    --      8.4424                 4.2788                41.8201

                    100                    101                    102
                      A                      A                      A
 Frequencies --   3140.6622              3143.7121              3146.9115
 Red. masses --      1.1029                 1.1029                 1.1023
 Frc consts  --      6.4097                 6.4220                 6.4314
 IR Inten    --      2.3994                15.9120                21.0327

                    103                    104                    105
                      A                      A                      A
 Frequencies --   3148.6304              3153.5707              3185.4979
 Red. masses --      1.1010                 1.1013                 1.0904
 Frc consts  --      6.4313                 6.4528                 6.5194
 IR Inten    --     24.3102                12.3971                 3.7801

                    106                    107                    108
                      A                      A                      A
 Frequencies --   3185.7251              3203.6042              3211.1108
 Red. masses --      1.0971                 1.0867                 1.0902
 Frc consts  --      6.5603                 6.5714                 6.6233
 IR Inten    --      5.1099                 0.0817                 3.4424

                    109                    110                    111
                      A                      A                      A
 Frequencies --   3219.6079              3230.1170              3770.1261
 Red. masses --      1.0942                 1.0983                 1.0655
 Frc consts  --      6.6828                 6.7518                 8.9231
 IR Inten    --      7.5580                 9.6974                89.1350

 - Thermochemistry -
 -------------------
 Temperature   298.150 Kelvin.  Pressure   1.00000 Atm.
 Atom     1 has atomic number  8 and mass  15.99491

 Molecular mass:   236.16505 amu.
 Principal axes and moments of inertia in atomic units:
                           1         2         3
     Eigenvalues --  3156.751944178.772645671.18292
           X            0.99989   0.00520  -0.01378
           Y           -0.00532   0.99995  -0.00829
           Z            0.01373   0.00836   0.99987
 This molecule is an asymmetric top.
 Rotational symmetry number  1.
 Warning -- assumption of classical behavior for rotation
           may cause significant error
 Rotational temperatures (Kelvin)      0.02744     0.02073     0.01527
 Rotational constants (GHZ):           0.57171     0.43188     0.31823
 Zero-point vibrational energy     900665.3 (Joules/Mol)
                                  215.26418 (Kcal/Mol)
 Warning -- explicit consideration of  29 degrees of freedom as
           vibrations may cause significant error
 Vibrational temperatures:     39.84    67.68    86.35   104.30   133.59
          (Kelvin)            191.44   218.15   264.85   302.27   317.47
                              346.69   351.94   354.84   402.51   432.69
                              452.84   479.71   493.34   515.76   537.67
                              586.00   599.08   622.18   634.34   676.68
                              721.16   785.60   840.41   850.90   909.25
                              940.61  1048.06  1116.63  1178.72  1205.97
                             1258.92  1268.73  1282.62  1315.78  1353.44
                             1373.32  1385.80  1403.92  1415.37  1448.44
                             1453.98  1471.13  1477.07  1498.40  1532.50
                             1574.87  1602.34  1648.16  1660.41  1683.48
                             1695.28  1728.14  1735.18  1742.55  1774.94
                             1797.13  1802.26  1842.73  1856.91  1897.58
                             1929.03  1942.09  1968.59  1986.45  1992.35
                             2017.47  2017.91  2041.10  2045.54  2089.94
                             2130.07  2136.63  2139.99  2149.04  2153.64
                             2155.74  2163.17  2168.19  2170.72  2180.53
                             2186.58  2217.07  2385.86  2411.64  4361.99
                             4388.38  4392.79  4412.28  4420.66  4445.28
                             4447.52  4480.34  4490.70  4502.94  4518.71
                             4523.10  4527.70  4530.18  4537.28  4583.22
                             4583.55  4609.27  4620.07  4632.30  4647.42
                             5424.37

 Zero-point correction=                           0.343045 (Hartree/Particle)
 Thermal correction to Energy=                    0.360891
 Thermal correction to Enthalpy=                  0.361835
 Thermal correction to Gibbs Free Energy=         0.297166
 Sum of electronic and zero-point Energies=           -751.484588
 Sum of electronic and thermal Energies=              -751.466743
 Sum of electronic and thermal Enthalpies=            -751.465799
 Sum of electronic and thermal Free Energies=         -751.530467

                     E (Thermal)             CV                S
                      KCal/Mol        Cal/Mol-Kelvin    Cal/Mol-Kelvin
 Total                  226.462             69.186            136.106
 Electronic               0.000              0.000              1.377
 Translational            0.889              2.981             42.280
 Rotational               0.889              2.981             32.681
 Vibrational            224.685             63.225             59.768
 Vibration     1          0.593              1.984              5.989
 Vibration     2          0.595              1.979              4.938
 Vibration     3          0.597              1.973              4.457
 Vibration     4          0.599              1.967              4.084
 Vibration     5          0.602              1.954              3.599
 Vibration     6          0.613              1.920              2.901
 Vibration     7          0.619              1.901              2.652
 Vibration     8          0.631              1.862              2.287
 Vibration     9          0.642              1.825              2.043
 Vibration    10          0.647              1.810              1.954
 Vibration    11          0.658              1.778              1.796
 Vibration    12          0.660              1.772              1.769
 Vibration    13          0.661              1.768              1.755
 Vibration    14          0.680              1.711              1.535
 Vibration    15          0.693              1.672              1.413
 Vibration    16          0.702              1.646              1.337
 Vibration    17          0.715              1.609              1.243
 Vibration    18          0.722              1.590              1.199
 Vibration    19          0.733              1.558              1.129
 Vibration    20          0.745              1.526              1.065
 Vibration    21          0.772              1.454              0.936
 Vibration    22          0.780              1.435              0.904
 Vibration    23          0.793              1.400              0.851
 Vibration    24          0.801              1.381              0.824
 Vibration    25          0.827              1.316              0.737
 Vibration    26          0.857              1.247              0.655
 Vibration    27          0.901              1.148              0.552
 Vibration    28          0.941              1.066              0.478
 Vibration    29          0.949              1.050              0.465

 Optimization completed.
    -- Stationary point found.

 1\1\GINC-BD23\Freq\UM062X\def2TZVP\C14H22N1O2(2)\MIYAO\07-Jan-2025\0\\
 #P Geom=AllCheck Guess=TCheck SCRF=Check GenChk UM062X/def2TZVP Freq\\
 data_set_12-catalyst-33\\0,2\O,-1.3985908887,0.4194171225,-1.434362874
 1\N,-1.1636942838,0.3904362767,-0.1839489031\C,-1.9374302334,-0.598527
 6343,0.6145651341\C,-1.6321651692,-0.458825051,2.0993476523\C,0.104927
 6625,0.992053451,0.2699942994\C,-3.4174811164,-0.3423466083,0.35023850
 68\C,-1.5370870397,-2.0151543071,0.1574159381\C,0.3443871793,2.3227204
 103,-0.4580930346\H,-1.8351861173,0.5542270318,2.4496957209\H,-0.59828

 Normal termination of Gaussian 16 at Tue Jan  7 23:11:15 2025.
