 Gaussian 16, Revision C.01,
 Gaussian 16:  ES64L-G16RevC.01  3-Jul-2019

 ----------------------------------
 #p M062X/DEF2TZVP opt freq pop=NBO
 ----------------------------------

 -----------------------
 data_set_12-catalyst-40
 -----------------------
 Symbolic Z-matrix:
 Charge =  0 Multiplicity = 2

 SCF Done:  E(UM062X) =  -536.609386900     A.U. after   18 cycles
 SCF Done:  E(UM062X) =  -536.615373793     A.U. after   14 cycles
 SCF Done:  E(UM062X) =  -536.615532889     A.U. after   13 cycles
 SCF Done:  E(UM062X) =  -536.615550878     A.U. after   13 cycles
 SCF Done:  E(UM062X) =  -536.615555820     A.U. after   10 cycles
 SCF Done:  E(UM062X) =  -536.615557339     A.U. after    9 cycles
 SCF Done:  E(UM062X) =  -536.615557616     A.U. after    8 cycles
 SCF Done:  E(UM062X) =  -536.615557676     A.U. after    8 cycles
 Optimization completed.
    -- Stationary point found.
 Normal termination of Gaussian 16 at Tue Jan  7 17:22:47 2025.

 --------------------------------------------------------------------
 #P Geom=AllCheck Guess=TCheck SCRF=Check GenChk UM062X/def2TZVP Freq
 --------------------------------------------------------------------

 Structure from the checkpoint file:  "outputs/data_set_12-catalyst-40.chk"
 -----------------------
 data_set_12-catalyst-40
 -----------------------
 Charge =  0 Multiplicity = 2

                         Standard orientation:
 ---------------------------------------------------------------------
 Center     Atomic      Atomic             Coordinates (Angstroms)
 Number     Number       Type             X           Y           Z
 ---------------------------------------------------------------------
      1          8           0       -1.050358    1.325436   -1.407317
      2          7           0       -0.529804    0.578485   -0.539663
      3          6           0       -1.281924   -0.528460    0.093674
      4          6           0       -0.385606   -0.877955    1.289365
      5          6           0        1.022609   -0.349921    0.929849
      6          6           0        0.747428    0.930445    0.108681
      7          6           0        1.786711    1.262132   -0.948011
      8          6           0        0.527022    2.125023    1.038308
      9          1           0        1.598008   -0.112836    1.825418
     10          6           0        1.784471   -1.350607    0.179441
     11          1           0        2.749213    1.465260   -0.476629
     12          1           0        1.465679    2.146342   -1.496672
     13          1           0        1.906041    0.440239   -1.652584
     14          1           0        0.109099    2.947710    0.458585
     15          1           0        1.474055    2.445619    1.474282
     16          1           0       -0.166745    1.885127    1.845433
     17          6           0       -2.657595   -0.031487    0.516690
     18          6           0       -1.408878   -1.671120   -0.911538
     19          1           0       -2.571489    0.821962    1.190989
     20          1           0       -3.199515   -0.829389    1.026296
     21          1           0       -0.431466   -2.070128   -1.183956
     22          1           0       -1.899042   -1.302519   -1.812858
     23          7           0        2.374040   -2.147608   -0.396276
     24          1           0       -0.377727   -1.946261    1.497368
     25          1           0       -0.733208   -0.361016    2.183767
     26          1           0       -3.224506    0.278540   -0.360080
     27          1           0       -2.010608   -2.476579   -0.488002
 ---------------------------------------------------------------------

 SCF Done:  E(UM062X) =  -536.615557676     A.U. after    1 cycles

 The electronic state is 2-A.
 Alpha  occ. eigenvalues --  -19.63605 -14.84298 -14.75622 -10.60971 -10.60455
 Alpha  occ. eigenvalues --  -10.59905 -10.58105 -10.57034 -10.54785 -10.53815
 Alpha  occ. eigenvalues --  -10.53696 -10.53402  -1.24255  -1.03638  -1.01097
 Alpha  occ. eigenvalues --   -0.93509  -0.87916  -0.83361  -0.80890  -0.79511
 Alpha  occ. eigenvalues --   -0.76934  -0.69574  -0.64159  -0.61883  -0.58251
 Alpha  occ. eigenvalues --   -0.57654  -0.54757  -0.54155  -0.52122  -0.51663
 Alpha  occ. eigenvalues --   -0.49554  -0.48428  -0.47926  -0.47163  -0.45987
 Alpha  occ. eigenvalues --   -0.45535  -0.45292  -0.44275  -0.43632  -0.42592
 Alpha  occ. eigenvalues --   -0.42254  -0.41206  -0.39525  -0.38897  -0.34434
 Alpha  occ. eigenvalues --   -0.26527
 Alpha virt. eigenvalues --    0.03642   0.05937   0.06678   0.07524   0.08190
 Alpha virt. eigenvalues --    0.09387   0.10489   0.11622   0.12079   0.12479
 Alpha virt. eigenvalues --    0.12639   0.13214   0.14257   0.14686   0.15502

  Beta  occ. eigenvalues --  -19.62518 -14.83504 -14.75623 -10.61012 -10.60454
  Beta  occ. eigenvalues --  -10.59945 -10.58106 -10.57034 -10.54743 -10.53791
  Beta  occ. eigenvalues --  -10.53678 -10.53366  -1.21313  -1.03300  -1.00247
  Beta  occ. eigenvalues --   -0.93300  -0.87217  -0.81959  -0.80657  -0.79359
  Beta  occ. eigenvalues --   -0.76884  -0.69019  -0.63303  -0.61265  -0.57707
  Beta  occ. eigenvalues --   -0.55128  -0.54033  -0.53352  -0.51761  -0.50749
  Beta  occ. eigenvalues --   -0.49201  -0.47727  -0.47455  -0.47072  -0.45371
  Beta  occ. eigenvalues --   -0.45042  -0.44347  -0.44150  -0.43546  -0.42230
  Beta  occ. eigenvalues --   -0.41133  -0.39636  -0.38995  -0.38257  -0.32804
  Beta virt. eigenvalues --   -0.01413   0.03835   0.05970   0.06861   0.07541
  Beta virt. eigenvalues --    0.08276   0.09480   0.10693   0.11691   0.12082
  Beta virt. eigenvalues --    0.12460   0.12724   0.13354   0.14308   0.14708

 Mulliken charges and spin densities:
               1          2
     1  O   -0.388499   0.531811
     2  N    0.196073   0.435888
     3  C   -0.019879  -0.010377
     4  C   -0.335096  -0.010271
     5  C   -0.009614   0.021581
     6  C    0.014586   0.001129
     7  C   -0.427357  -0.006493
     8  C   -0.444609   0.021701
     9  H    0.186802  -0.000920
    10  C   -0.312861  -0.005401
    11  H    0.153389  -0.000683
    12  H    0.176592  -0.000497
    13  H    0.172423   0.001831
    14  H    0.185922  -0.002715
    15  H    0.157424   0.001945
    16  H    0.142203   0.000206
    17  C   -0.425903   0.013113
    18  C   -0.423154   0.014146
    19  H    0.140331   0.001340
    20  H    0.151808  -0.000545
    21  H    0.169243  -0.000570
    22  H    0.172584  -0.002593
    23  N    0.063126  -0.002161
    24  H    0.192483   0.000172
    25  H    0.187398  -0.002087
    26  H    0.177906  -0.000921
    27  H    0.146680   0.001369
 Sum of Mulliken charges =  -0.00000   1.00000

 Dipole moment (field-independent basis, Debye):
    X=             -1.1577    Y=              1.0915    Z=              3.9246  Tot=              4.2349
 Quadrupole moment (field-independent basis, Debye-Ang):
   XX=            -78.4302   YY=            -80.0882   ZZ=            -74.3227
   XY=             11.9565   XZ=              0.3266   YZ=              0.9791

  Exact polarizability:     120.107      -1.846     117.512      -1.978       2.015     103.917
 Approx polarizability:     137.813      -7.203     142.337      -1.434       1.750     136.109

 Summary of Natural Population Analysis:

                                       Natural Population
                Natural  -----------------------------------------------
    Atom  No    Charge         Core      Valence    Rydberg      Total
 -----------------------------------------------------------------------
      O    1    0.05483      0.99993     2.93955    0.00570     3.94517
      N    2    0.25027      0.99971     2.22930    0.02073     3.24973
      C    3    0.02972      0.99967     1.96179    0.00882     2.97028
      C    4   -0.19162      0.99968     2.18500    0.00694     3.19162
      C    5   -0.17019      0.99955     2.16301    0.00763     3.17019
      C    6    0.04538      0.99966     1.94588    0.00908     2.95462
      C    7   -0.29985      0.99970     2.29333    0.00682     3.29985
      C    8   -0.29125      0.99970     2.28532    0.00623     3.29125
      H    9    0.12832      0.00000     0.37064    0.00104     0.37168
      C   10    0.14302      0.99965     1.84040    0.01693     2.85698
      H   11    0.10637      0.00000     0.39322    0.00040     0.39363
      H   12    0.11728      0.00000     0.38216    0.00056     0.38272
      H   13    0.11498      0.00000     0.38447    0.00055     0.38502
      H   14    0.11648      0.00000     0.38301    0.00052     0.38352
      H   15    0.10766      0.00000     0.39189    0.00044     0.39234
      H   16    0.10205      0.00000     0.39739    0.00056     0.39795
      C   17   -0.29160      0.99970     2.28542    0.00647     3.29160
      C   18   -0.29341      0.99970     2.28739    0.00633     3.29341
      H   19    0.10351      0.00000     0.39597    0.00051     0.39649
      H   20    0.10537      0.00000     0.39421    0.00041     0.39463
      H   21    0.11144      0.00000     0.38804    0.00052     0.38856
      H   22    0.11300      0.00000     0.38646    0.00055     0.38700
      N   23   -0.15863      0.99981     2.64286    0.01596     3.65863
      H   24    0.11724      0.00000     0.38220    0.00056     0.38276
      H   25    0.10874      0.00000     0.39062    0.00064     0.39126
      H   26    0.11590      0.00000     0.38351    0.00059     0.38410
      H   27    0.10498      0.00000     0.39458    0.00044     0.39502
 =======================================================================
   * Total *    0.50000     11.99646    32.87761    0.12593    45.00000

                      1                      2                      3
                      A                      A                      A
 Frequencies --     49.0037                97.5024               126.3066
 Red. masses --      4.0697                 5.2055                 5.0863
 Frc consts  --      0.0058                 0.0292                 0.0478
 IR Inten    --      2.9861                 4.5932                 2.3709

                      4                      5                      6
                      A                      A                      A
 Frequencies --    153.0802               201.5329               222.2564
 Red. masses --      4.7657                 2.9066                 1.0653
 Frc consts  --      0.0658                 0.0696                 0.0310
 IR Inten    --      4.8720                 1.0848                 0.1102

                      7                      8                      9
                      A                      A                      A
 Frequencies --    225.3489               249.0786               271.0840
 Red. masses --      1.0554                 1.4002                 1.0870
 Frc consts  --      0.0316                 0.0512                 0.0471
 IR Inten    --      0.1891                 0.1536                 1.4999

                     10                     11                     12
                      A                      A                      A
 Frequencies --    287.4384               301.8692               326.9169
 Red. masses --      2.0122                 2.2092                 3.8767
 Frc consts  --      0.0979                 0.1186                 0.2441
 IR Inten    --      0.7621                 0.1570                 9.6120

                     13                     14                     15
                      A                      A                      A
 Frequencies --    343.8662               357.2996               377.6510
 Red. masses --      2.6185                 2.4649                 2.5074
 Frc consts  --      0.1824                 0.1854                 0.2107
 IR Inten    --      1.2694                 0.9218                 2.0267

                     16                     17                     18
                      A                      A                      A
 Frequencies --    405.5300               466.2348               502.8412
 Red. masses --      3.0108                 4.2954                 3.7963
 Frc consts  --      0.2917                 0.5501                 0.5655
 IR Inten    --      1.1271                 2.1814                 2.5750

                     19                     20                     21
                      A                      A                      A
 Frequencies --    536.0963               558.2881               611.1750
 Red. masses --      4.0192                 3.5972                 3.7466
 Frc consts  --      0.6806                 0.6606                 0.8246
 IR Inten    --      6.4235                 3.2122                 1.6480

                     22                     23                     24
                      A                      A                      A
 Frequencies --    682.5972               707.7950               814.9526
 Red. masses --      4.5619                 4.0492                 2.4104
 Frc consts  --      1.2523                 1.1952                 0.9432
 IR Inten    --      1.1629                 4.4345                 0.1279

                     25                     26                     27
                      A                      A                      A
 Frequencies --    874.5728               887.4872               941.9172
 Red. masses --      3.0642                 2.4158                 2.0396
 Frc consts  --      1.3809                 1.1211                 1.0661
 IR Inten    --      0.2248                 0.1573                 0.6393

                     28                     29                     30
                      A                      A                      A
 Frequencies --    956.9927               963.7519               973.4014
 Red. masses --      1.6216                 1.4456                 1.6271
 Frc consts  --      0.8750                 0.7911                 0.9084
 IR Inten    --      0.2449                 0.7947                 0.1446

                     31                     32                     33
                      A                      A                      A
 Frequencies --   1003.9416              1018.0194              1042.6555
 Red. masses --      1.4811                 1.3889                 1.7099
 Frc consts  --      0.8795                 0.8481                 1.0952
 IR Inten    --      0.0927                 1.2158                 1.8831

                     34                     35                     36
                      A                      A                      A
 Frequencies --   1047.8756              1100.2130              1154.2551
 Red. masses --      1.6823                 2.1349                 1.7183
 Frc consts  --      1.0884                 1.5226                 1.3489
 IR Inten    --      0.4291                 3.2335                11.8699

                     37                     38                     39
                      A                      A                      A
 Frequencies --   1177.3795              1211.2449              1236.5192
 Red. masses --      1.7041                 2.6274                 3.0133
 Frc consts  --      1.3918                 2.2711                 2.7145
 IR Inten    --     10.6219                 6.2576                 9.5829

                     40                     41                     42
                      A                      A                      A
 Frequencies --   1255.7851              1277.6830              1294.5677
 Red. masses --      2.1323                 2.0671                 2.8131
 Frc consts  --      1.9812                 1.9882                 2.7777
 IR Inten    --      3.5298                 8.9844                11.2356

                     43                     44                     45
                      A                      A                      A
 Frequencies --   1295.9258              1357.3228              1363.6144
 Red. masses --      2.0418                 1.9311                 1.5386
 Frc consts  --      2.0204                 2.0962                 1.6856
 IR Inten    --      2.6445                10.9107                 2.5517

                     46                     47                     48
                      A                      A                      A
 Frequencies --   1396.6574              1399.5974              1415.7141
 Red. masses --      1.2807                 1.2959                 1.2441
 Frc consts  --      1.4719                 1.4956                 1.4691
 IR Inten    --      0.1159                23.1110                 8.1812

                     49                     50                     51
                      A                      A                      A
 Frequencies --   1419.4958              1474.1861              1476.7034
 Red. masses --      1.2458                 1.0444                 1.0477
 Frc consts  --      1.4790                 1.3372                 1.3462
 IR Inten    --     12.0334                 0.2484                 2.7218

                     52                     53                     54
                      A                      A                      A
 Frequencies --   1487.6736              1489.1101              1495.4689
 Red. masses --      1.0521                 1.0467                 1.0791
 Frc consts  --      1.3719                 1.3675                 1.4219
 IR Inten    --      2.7120                 0.3260                 4.7681

                     55                     56                     57
                      A                      A                      A
 Frequencies --   1501.9445              1502.7688              1510.0263
 Red. masses --      1.0793                 1.0933                 1.0625
 Frc consts  --      1.4345                 1.4546                 1.4274
 IR Inten    --     11.6931                 7.6591                 3.5417

                     58                     59                     60
                      A                      A                      A
 Frequencies --   1512.5749              1540.3628              2411.6811
 Red. masses --      1.1092                 6.4193                12.6675
 Frc consts  --      1.4952                 8.9739                43.4093
 IR Inten    --      3.3659                13.0193                11.0483

                     61                     62                     63
                      A                      A                      A
 Frequencies --   3065.3638              3066.4888              3068.4213
 Red. masses --      1.0346                 1.0345                 1.0353
 Frc consts  --      5.7277                 5.7312                 5.7430
 IR Inten    --     11.5629                10.3585                11.3440

                     64                     65                     66
                      A                      A                      A
 Frequencies --   3076.8050              3098.7011              3110.8583
 Red. masses --      1.0355                 1.0641                 1.0822
 Frc consts  --      5.7758                 6.0202                 6.1703
 IR Inten    --      8.4947                 9.9748                 3.5290

                     67                     68                     69
                      A                      A                      A
 Frequencies --   3140.3483              3142.5062              3145.7932
 Red. masses --      1.1031                 1.1027                 1.1029
 Frc consts  --      6.4097                 6.4158                 6.4304
 IR Inten    --     15.6023                13.2241                13.2777

                     70                     71                     72
                      A                      A                      A
 Frequencies --   3151.8392              3153.2080              3154.3519
 Red. masses --      1.1043                 1.1034                 1.1042
 Frc consts  --      6.4634                 6.4638                 6.4732
 IR Inten    --      6.7965                 0.4189                 7.4584

                     73                     74                     75
                      A                      A                      A
 Frequencies --   3156.9357              3160.2956              3166.9647
 Red. masses --      1.1023                 1.1020                 1.1034
 Frc consts  --      6.4729                 6.4846                 6.5203
 IR Inten    --      8.7267                 8.2049                 5.6486

 - Thermochemistry -
 -------------------
 Temperature   298.150 Kelvin.  Pressure   1.00000 Atm.
 Atom     1 has atomic number  8 and mass  15.99491

 Molecular mass:   167.11844 amu.
 Principal axes and moments of inertia in atomic units:
                           1         2         3
     Eigenvalues --  1513.606071866.771082419.58820
           X            0.97756   0.21015  -0.01444
           Y           -0.20954   0.97715   0.03563
           Z            0.02160  -0.03180   0.99926
 This molecule is an asymmetric top.
 Rotational symmetry number  1.
 Warning -- assumption of classical behavior for rotation
           may cause significant error
 Rotational temperatures (Kelvin)      0.05722     0.04640     0.03580
 Rotational constants (GHZ):           1.19235     0.96677     0.74589
 Zero-point vibrational energy     611314.0 (Joules/Mol)
                                  146.10755 (Kcal/Mol)
 Warning -- explicit consideration of  21 degrees of freedom as
           vibrations may cause significant error
 Vibrational temperatures:     70.51   140.28   181.73   220.25   289.96
          (Kelvin)            319.78   324.23   358.37   390.03   413.56
                              434.32   470.36   494.75   514.07   543.36
                              583.47   670.81   723.48   771.32   803.25
                              879.34   982.11  1018.36  1172.53  1258.32
                             1276.90  1355.21  1376.90  1386.62  1400.51
                             1444.45  1464.70  1500.15  1507.66  1582.96
                             1660.72  1693.99  1742.71  1779.08  1806.79
                             1838.30  1862.59  1864.55  1952.88  1961.94
                             2009.48  2013.71  2036.90  2042.34  2121.02
                             2124.65  2140.43  2142.50  2151.65  2160.96
                             2162.15  2172.59  2176.26  2216.24  3469.87
                             4410.37  4411.99  4414.77  4426.84  4458.34
                             4475.83  4518.26  4521.37  4526.09  4534.79
                             4536.76  4538.41  4542.13  4546.96  4556.56

 Zero-point correction=                           0.232837 (Hartree/Particle)
 Thermal correction to Energy=                    0.245693
 Thermal correction to Enthalpy=                  0.246637
 Thermal correction to Gibbs Free Energy=         0.194312
 Sum of electronic and zero-point Energies=           -536.382720
 Sum of electronic and thermal Energies=              -536.369865
 Sum of electronic and thermal Enthalpies=            -536.368920
 Sum of electronic and thermal Free Energies=         -536.421246

                     E (Thermal)             CV                S
                      KCal/Mol        Cal/Mol-Kelvin    Cal/Mol-Kelvin
 Total                  154.175             49.241            110.128
 Electronic               0.000              0.000              1.377
 Translational            0.889              2.981             41.249
 Rotational               0.889              2.981             30.304
 Vibrational            152.397             43.280             37.198
 Vibration     1          0.595              1.978              4.857
 Vibration     2          0.603              1.951              3.504
 Vibration     3          0.611              1.927              3.002
 Vibration     4          0.619              1.899              2.634
 Vibration     5          0.638              1.838              2.119
 Vibration     6          0.648              1.807              1.941
 Vibration     7          0.650              1.802              1.916
 Vibration     8          0.662              1.764              1.737
 Vibration     9          0.675              1.727              1.589
 Vibration    10          0.685              1.697              1.489
 Vibration    11          0.694              1.670              1.407
 Vibration    12          0.711              1.622              1.275
 Vibration    13          0.723              1.588              1.194
 Vibration    14          0.732              1.560              1.134
 Vibration    15          0.748              1.518              1.049
 Vibration    16          0.771              1.458              0.943
 Vibration    17          0.824              1.325              0.748
 Vibration    18          0.858              1.244              0.651
 Vibration    19          0.891              1.170              0.574
 Vibration    20          0.914              1.122              0.527
 Vibration    21          0.970              1.008              0.431

 Optimization completed.
    -- Stationary point found.
 Normal termination of Gaussian 16 at Tue Jan  7 18:20:27 2025.
