 Gaussian 16, Revision C.01,
 Gaussian 16:  ES64L-G16RevC.01  3-Jul-2019

 ----------------------------------
 #p M062X/DEF2TZVP opt freq pop=NBO
 ----------------------------------

 -----------------------
 data_set_12-catalyst-41
 -----------------------
 Symbolic Z-matrix:
 Charge =  0 Multiplicity = 2

 SCF Done:  E(UM062X) =  -637.283919930     A.U. after   25 cycles
 SCF Done:  E(UM062X) =  -637.289080021     A.U. after   19 cycles
 SCF Done:  E(UM062X) =  -637.289286578     A.U. after   20 cycles
 SCF Done:  E(UM062X) =  -637.289307364     A.U. after   19 cycles
 SCF Done:  E(UM062X) =  -637.289323145     A.U. after   15 cycles
 SCF Done:  E(UM062X) =  -637.289333617     A.U. after   14 cycles
 SCF Done:  E(UM062X) =  -637.289334724     A.U. after   11 cycles
 SCF Done:  E(UM062X) =  -637.289334828     A.U. after    9 cycles
 Optimization completed.
    -- Stationary point found.

 1\1\GINC-BD24\FOpt\UM062X\def2TZVP\C13H20N1O1(2)\MIYAO\07-Jan-2025\0\\
 #p M062X/DEF2TZVP opt freq pop=NBO\\data_set_12-catalyst-41\\0,2\O,-1.
 670766203,-0.0213936886,-1.5625256528\N,-1.4190788496,-0.2313199262,-0
 .3375654289\C,-1.6557287249,-1.6027326816,0.1639668445\C,-0.3986329659
 ,0.6223117087,0.3025351085\C,-1.5830427097,-1.6647592739,1.6820150144\
 C,-3.0033088054,-2.087583664,-0.3457107662\C,-0.5112281228,2.064375807
 8,-0.2095559071\H,-1.8632367185,-2.6663200572,2.0072639986\H,-2.283595
 0569,-0.955806686,2.128876112\H,-0.5812091414,-1.4630636721,2.05952397

 Normal termination of Gaussian 16 at Tue Jan  7 18:04:45 2025.

 --------------------------------------------------------------------
 #P Geom=AllCheck Guess=TCheck SCRF=Check GenChk UM062X/def2TZVP Freq
 --------------------------------------------------------------------

 Structure from the checkpoint file:  "outputs/data_set_12-catalyst-41.chk"
 -----------------------
 data_set_12-catalyst-41
 -----------------------
 Charge =  0 Multiplicity = 2

                         Standard orientation:
 ---------------------------------------------------------------------
 Center     Atomic      Atomic             Coordinates (Angstroms)
 Number     Number       Type             X           Y           Z
 ---------------------------------------------------------------------
      1          8           0       -1.675738   -0.059905   -1.554796
      2          7           0       -1.412346   -0.258201   -0.330359
      3          6           0       -1.623199   -1.630181    0.181035
      4          6           0       -0.401624    0.615814    0.297546
      5          6           0       -1.539200   -1.681714    1.698892
      6          6           0       -2.966129   -2.139990   -0.316415
      7          6           0       -0.541185    2.052692   -0.222425
      8          1           0       -1.800817   -2.685685    2.032085
      9          1           0       -2.248163   -0.981519    2.146298
     10          1           0       -0.538246   -1.461448    2.068267
     11          1           0       -3.099800   -3.175301   -0.002994
     12          1           0       -3.025917   -2.084470   -1.399647
     13          1           0       -3.774319   -1.540461    0.107314
     14          6           0        0.503258    2.951186    0.433550
     15          6           0       -1.947176    2.582934    0.040901
     16          1           0       -0.612799    0.632333    1.369182
     17          1           0        1.519942    2.633905    0.202496
     18          1           0        0.387139    2.950641    1.521480
     19          1           0        0.381132    3.978533    0.088954
     20          1           0       -2.162877    2.572869    1.113492
     21          1           0       -2.699909    1.986788   -0.471424
     22          1           0       -2.033216    3.614148   -0.304052
     23          6           0        0.982552    0.034717    0.087809
     24          6           0        1.855861   -0.114263    1.159318
     25          6           0        3.135909   -0.617012    0.966054
     26          6           0        3.551060   -0.982676   -0.305892
     27          6           0        2.681656   -0.842825   -1.380567
     28          6           0        1.405028   -0.336342   -1.186795
     29          1           0       -0.367812    2.028394   -1.300088
     30          1           0        1.533060    0.174366    2.153987
     31          1           0        3.806282   -0.724729    1.809002
     32          1           0        4.546732   -1.377667   -0.460111
     33          1           0        2.999931   -1.129898   -2.374540
     34          1           0        0.722020   -0.232009   -2.022002
     35          1           0       -0.820903   -2.246185   -0.244894
 ---------------------------------------------------------------------

 SCF Done:  E(UM062X) =  -637.289334828     A.U. after    1 cycles

 The electronic state is 2-A.
 Alpha  occ. eigenvalues --  -19.62469 -14.83745 -10.58035 -10.57864 -10.55268
 Alpha  occ. eigenvalues --  -10.54647 -10.54564 -10.54460 -10.54364 -10.54089
 Alpha  occ. eigenvalues --  -10.53935 -10.53584 -10.52319 -10.52115 -10.51612
 Alpha  occ. eigenvalues --   -1.22903  -0.98211  -0.95340  -0.91934  -0.86364
 Alpha  occ. eigenvalues --   -0.84845  -0.83763  -0.78714  -0.77286  -0.75537
 Alpha  occ. eigenvalues --   -0.69838  -0.68710  -0.66179  -0.63535  -0.60332
 Alpha  occ. eigenvalues --   -0.59331  -0.55950  -0.55661  -0.53990  -0.52491
 Alpha  occ. eigenvalues --   -0.51151  -0.51046  -0.49433  -0.48492  -0.47443
 Alpha  occ. eigenvalues --   -0.46472  -0.46277  -0.45415  -0.44881  -0.44445
 Alpha  occ. eigenvalues --   -0.43984  -0.41985  -0.41325  -0.40780  -0.40392
 Alpha  occ. eigenvalues --   -0.39511  -0.38826  -0.38539  -0.33886  -0.31355
 Alpha  occ. eigenvalues --   -0.30687  -0.26120
 Alpha virt. eigenvalues --    0.01479   0.01727   0.05652   0.08031   0.08483
 Alpha virt. eigenvalues --    0.08960   0.09859   0.11466   0.11614   0.12253
 Alpha virt. eigenvalues --    0.12531   0.12828   0.13316   0.13418   0.14398

  Beta  occ. eigenvalues --  -19.61401 -14.82965 -10.58058 -10.57890 -10.55223
  Beta  occ. eigenvalues --  -10.54643 -10.54562 -10.54459 -10.54362 -10.54084
  Beta  occ. eigenvalues --  -10.53930 -10.53582 -10.52307 -10.52116 -10.51614
  Beta  occ. eigenvalues --   -1.20009  -0.97726  -0.94205  -0.91759  -0.86192
  Beta  occ. eigenvalues --   -0.84812  -0.82807  -0.78554  -0.77275  -0.74923
  Beta  occ. eigenvalues --   -0.69776  -0.68345  -0.65818  -0.62798  -0.59514
  Beta  occ. eigenvalues --   -0.58629  -0.54560  -0.54342  -0.53777  -0.52235
  Beta  occ. eigenvalues --   -0.51116  -0.50156  -0.49215  -0.47642  -0.46757
  Beta  occ. eigenvalues --   -0.46234  -0.45946  -0.44856  -0.44618  -0.43998
  Beta  occ. eigenvalues --   -0.43089  -0.41736  -0.40995  -0.40497  -0.39550
  Beta  occ. eigenvalues --   -0.39028  -0.38475  -0.37097  -0.32393  -0.31327
  Beta  occ. eigenvalues --   -0.30299
  Beta virt. eigenvalues --   -0.01679   0.01555   0.02280   0.05584   0.08092
  Beta virt. eigenvalues --    0.08449   0.08919   0.09701   0.11405   0.11576
  Beta virt. eigenvalues --    0.12234   0.12418   0.12762   0.13305   0.13452

 Mulliken charges and spin densities:
               1          2
     1  O   -0.392329   0.528166
     2  N    0.170684   0.439540
     3  C   -0.058177  -0.006519
     4  C   -0.343080  -0.029807
     5  C   -0.449214   0.003694
     6  C   -0.409684  -0.008896
     7  C   -0.048631  -0.000260
     8  H    0.152402  -0.000380
     9  H    0.163950  -0.000356
    10  H    0.148542  -0.000768
    11  H    0.134690  -0.000891
    12  H    0.170863   0.000534
    13  H    0.139731   0.002963
    14  C   -0.456523  -0.001360
    15  C   -0.442099   0.003783
    16  H    0.212254   0.001003
    17  H    0.169203  -0.000009
    18  H    0.138943   0.000108
    19  H    0.148836   0.000008
    20  H    0.130653   0.000074
    21  H    0.170246  -0.002484
    22  H    0.142990  -0.000065
    23  C    0.144675   0.034201
    24  C   -0.210094   0.007570
    25  C   -0.139867  -0.002140
    26  C   -0.147869   0.004963
    27  C   -0.141039  -0.004215
    28  C   -0.211823   0.006550
    29  H    0.153686  -0.000766
    30  H    0.169614  -0.000176
    31  H    0.143789   0.000415
    32  H    0.143803  -0.000069
    33  H    0.146086   0.000098
    34  H    0.203446  -0.004095
    35  H    0.151341   0.029587
 Sum of Mulliken charges =  -0.00000   1.00000

 Dipole moment (field-independent basis, Debye):
    X=              1.1112    Y=             -0.7705    Z=              2.2743  Tot=              2.6459
 Quadrupole moment (field-independent basis, Debye-Ang):
   XX=            -91.6436   YY=            -91.5143   ZZ=            -92.6302
   XY=             -0.3652   XZ=             -4.4155   YZ=              0.1478

  Exact polarizability:     181.210     -10.626     145.251       2.527       2.809     149.316
 Approx polarizability:     207.524     -16.078     169.371       5.433       4.756     214.115

 Summary of Natural Population Analysis:

                                       Natural Population
                Natural  -----------------------------------------------
    Atom  No    Charge         Core      Valence    Rydberg      Total
 -----------------------------------------------------------------------
      O    1    0.04622      0.99993     2.94849    0.00535     3.95378
      N    2    0.25428      0.99974     2.22728    0.01870     3.24572
      C    3   -0.04951      0.99967     2.04252    0.00731     3.04951
      C    4   -0.05374      0.99957     2.04382    0.01036     3.05374
      C    5   -0.30646      0.99973     2.30092    0.00581     3.30646
      C    6   -0.29754      0.99973     2.29161    0.00620     3.29754
      C    7   -0.10675      0.99971     2.09871    0.00832     3.10675
      H    8    0.10952      0.00000     0.39006    0.00042     0.39048
      H    9    0.10382      0.00000     0.39562    0.00056     0.39618
      H   10    0.10672      0.00000     0.39277    0.00051     0.39328
      H   11    0.10268      0.00000     0.39690    0.00041     0.39732
      H   12    0.11780      0.00000     0.38166    0.00054     0.38220
      H   13    0.10286      0.00000     0.39653    0.00061     0.39714
      C   14   -0.29983      0.99973     2.29507    0.00502     3.29983
      C   15   -0.29926      0.99973     2.29442    0.00511     3.29926
      H   16    0.10514      0.00000     0.39319    0.00167     0.39486
      H   17    0.10856      0.00000     0.39102    0.00043     0.39144
      H   18    0.09738      0.00000     0.40201    0.00060     0.40262
      H   19    0.10597      0.00000     0.39362    0.00041     0.39403
      H   20    0.09641      0.00000     0.40302    0.00057     0.40359
      H   21    0.11315      0.00000     0.38631    0.00054     0.38685
      H   22    0.10422      0.00000     0.39537    0.00041     0.39578
      C   23   -0.00534      0.99952     1.99436    0.01146     3.00534
      C   24   -0.10637      0.99956     2.09771    0.00910     3.10637
      C   25   -0.10320      0.99961     2.09428    0.00930     3.10320
      C   26   -0.10529      0.99961     2.09666    0.00902     3.10529
      C   27   -0.09924      0.99962     2.09075    0.00887     3.09924
      C   28   -0.10761      0.99955     2.09887    0.00919     3.10761
      H   29    0.10930      0.00000     0.38993    0.00077     0.39070
      H   30    0.10494      0.00000     0.39444    0.00062     0.39506
      H   31    0.10729      0.00000     0.39218    0.00053     0.39271
      H   32    0.10708      0.00000     0.39242    0.00050     0.39292
      H   33    0.10739      0.00000     0.39208    0.00054     0.39261
      H   34    0.11630      0.00000     0.38295    0.00076     0.38370
      H   35    0.11310      0.00000     0.38562    0.00128     0.38690
 =======================================================================
   * Total *    0.50000     14.99501    40.86320    0.14179    56.00000

                      1                      2                      3
                      A                      A                      A
 Frequencies --     40.4477                48.7788                64.6421
 Red. masses --      3.1087                 3.5794                 3.2163
 Frc consts  --      0.0030                 0.0050                 0.0079
 IR Inten    --      0.0412                 1.1204                 0.3920

                      4                      5                      6
                      A                      A                      A
 Frequencies --     71.5180                96.9227               152.3727
 Red. masses --      2.9621                 3.1744                 3.3292
 Frc consts  --      0.0089                 0.0176                 0.0455
 IR Inten    --      0.2540                 0.7816                 1.7456

                      7                      8                      9
                      A                      A                      A
 Frequencies --    158.7364               211.6840               221.1247
 Red. masses --      5.1102                 1.1901                 1.1445
 Frc consts  --      0.0759                 0.0314                 0.0330
 IR Inten    --      3.7625                 0.1337                 0.1805

                     10                     11                     12
                      A                      A                      A
 Frequencies --    235.3510               250.4521               270.4850
 Red. masses --      2.6276                 1.4431                 1.8842
 Frc consts  --      0.0858                 0.0533                 0.0812
 IR Inten    --      0.0744                 0.2024                 0.2724

                     13                     14                     15
                      A                      A                      A
 Frequencies --    303.0237               313.9201               345.7146
 Red. masses --      1.5087                 2.1611                 2.6265
 Frc consts  --      0.0816                 0.1255                 0.1850
 IR Inten    --      0.3231                 0.3917                 1.0860

                     16                     17                     18
                      A                      A                      A
 Frequencies --    351.7712               391.1679               414.5585
 Red. masses --      3.6196                 2.9300                 2.7077
 Frc consts  --      0.2639                 0.2641                 0.2742
 IR Inten    --      2.9415                 5.6857                 0.9229

                     19                     20                     21
                      A                      A                      A
 Frequencies --    418.2611               436.7486               462.8596
 Red. masses --      2.5374                 2.4901                 3.1829
 Frc consts  --      0.2615                 0.2799                 0.4018
 IR Inten    --      0.6509                 1.1082                 3.8550

                     22                     23                     24
                      A                      A                      A
 Frequencies --    495.0881               549.7992               601.8381
 Red. masses --      3.3834                 3.1501                 4.1154
 Frc consts  --      0.4886                 0.5610                 0.8783
 IR Inten    --      8.8496                 4.3406                11.8006

                     25                     26                     27
                      A                      A                      A
 Frequencies --    632.3901               673.5110               727.8924
 Red. masses --      6.3415                 4.3342                 1.6418
 Frc consts  --      1.4942                 1.1584                 0.5125
 IR Inten    --      0.1602                 6.6107                48.0913

                     28                     29                     30
                      A                      A                      A
 Frequencies --    783.3985               835.4519               846.3388
 Red. masses --      2.1255                 3.3805                 3.1209
 Frc consts  --      0.7686                 1.3902                 1.3171
 IR Inten    --     25.7796                 2.3828                 2.6356

                     31                     32                     33
                      A                      A                      A
 Frequencies --    880.9328               892.6328               922.6187
 Red. masses --      1.2505                 2.3638                 2.2687
 Frc consts  --      0.5718                 1.1097                 1.1378
 IR Inten    --      0.0761                 0.7302                 3.8832

                     34                     35                     36
                      A                      A                      A
 Frequencies --    940.1718               942.3988               955.2082
 Red. masses --      1.1497                 1.1952                 1.4728
 Frc consts  --      0.5987                 0.6254                 0.7917
 IR Inten    --      0.3020                 5.9591                 3.2747

                     37                     38                     39
                      A                      A                      A
 Frequencies --    968.2314               981.2172               986.0639
 Red. masses --      1.4413                 1.6013                 1.6475
 Frc consts  --      0.7961                 0.9083                 0.9438
 IR Inten    --      1.0794                 1.7896                 3.4966

                     40                     41                     42
                      A                      A                      A
 Frequencies --   1005.3599              1022.2569              1023.9926
 Red. masses --      1.3587                 3.5385                 1.5469
 Frc consts  --      0.8091                 2.1787                 0.9557
 IR Inten    --      0.0035                 0.1951                 0.2564

                     43                     44                     45
                      A                      A                      A
 Frequencies --   1064.6702              1071.0729              1110.1007
 Red. masses --      2.1214                 1.9762                 1.5556
 Frc consts  --      1.4168                 1.3357                 1.1295
 IR Inten    --      3.3369                 0.0419                 5.6212

                     46                     47                     48
                      A                      A                      A
 Frequencies --   1146.9850              1154.0109              1175.4599
 Red. masses --      1.8849                 2.1581                 1.6648
 Frc consts  --      1.4610                 1.6934                 1.3553
 IR Inten    --      5.5849                 0.2716                 1.3499

                     49                     50                     51
                      A                      A                      A
 Frequencies --   1178.6741              1190.5331              1203.4441
 Red. masses --      1.3241                 1.9865                 1.6159
 Frc consts  --      1.0838                 1.6589                 1.3788
 IR Inten    --      0.2692                 2.6168                 6.0641

                     52                     53                     54
                      A                      A                      A
 Frequencies --   1206.8198              1223.4016              1236.5032
 Red. masses --      1.2238                 2.2343                 2.5651
 Frc consts  --      1.0501                 1.9703                 2.3107
 IR Inten    --      2.5090                10.0589                 1.1909

                     55                     56                     57
                      A                      A                      A
 Frequencies --   1282.5801              1313.7039              1339.9108
 Red. masses --      2.1199                 1.5858                 2.3880
 Frc consts  --      2.0546                 1.6125                 2.5260
 IR Inten    --      4.8631                 0.6701                 2.5403

                     58                     59                     60
                      A                      A                      A
 Frequencies --   1347.6328              1353.9062              1360.9081
 Red. masses --      1.4485                 1.3182                 1.4067
 Frc consts  --      1.5499                 1.4237                 1.5350
 IR Inten    --      1.4694                14.7809                 1.2922

                     61                     62                     63
                      A                      A                      A
 Frequencies --   1373.1422              1387.0326              1401.7322
 Red. masses --      1.3924                 1.4079                 1.2979
 Frc consts  --      1.5469                 1.5958                 1.5025
 IR Inten    --      0.6160                 2.8530                 6.8518

                     64                     65                     66
                      A                      A                      A
 Frequencies --   1402.1804              1419.5268              1421.2269
 Red. masses --      1.3824                 1.2624                 1.2489
 Frc consts  --      1.6013                 1.4987                 1.4863
 IR Inten    --     12.9909                17.8536                10.7500

                     67                     68                     69
                      A                      A                      A
 Frequencies --   1482.6572              1485.4176              1488.9502
 Red. masses --      1.1677                 1.0769                 1.3951
 Frc consts  --      1.5123                 1.4000                 1.8223
 IR Inten    --      1.0861                 4.2365                 3.8139

                     70                     71                     72
                      A                      A                      A
 Frequencies --   1495.4233              1496.8785              1501.2473
 Red. masses --      1.2299                 1.4296                 1.7910
 Frc consts  --      1.6204                 1.8873                 2.3782
 IR Inten    --      4.1825                 6.0412                 5.9992

                     73                     74                     75
                      A                      A                      A
 Frequencies --   1503.2078              1505.0771              1516.2942
 Red. masses --      1.1131                 1.1385                 1.0629
 Frc consts  --      1.4819                 1.5195                 1.4398
 IR Inten    --      5.4239                 2.7443                13.0230

                     76                     77                     78
                      A                      A                      A
 Frequencies --   1520.2982              1540.5288              1658.6498
 Red. masses --      1.0651                 2.3349                 5.9700
 Frc consts  --      1.4504                 3.2648                 9.6769
 IR Inten    --     10.7905                11.3904                 1.2561

                     79                     80                     81
                      A                      A                      A
 Frequencies --   1676.2544              3024.8552              3050.3213
 Red. masses --      5.9369                 1.0828                 1.0413
 Frc consts  --      9.8285                 5.8371                 5.7085
 IR Inten    --      4.0505                12.0209                14.8161

                     82                     83                     84
                      A                      A                      A
 Frequencies --   3052.4014              3064.6572              3071.3785
 Red. masses --      1.0431                 1.0384                 1.0395
 Frc consts  --      5.7261                 5.7463                 5.7773
 IR Inten    --     27.1477                 8.4751                21.7725

                     85                     86                     87
                      A                      A                      A
 Frequencies --   3083.6563              3097.8771              3119.8378
 Red. masses --      1.0808                 1.0839                 1.0967
 Frc consts  --      6.0554                 6.1289                 6.2894
 IR Inten    --      3.8262                12.9687                 3.9168

                     88                     89                     90
                      A                      A                      A
 Frequencies --   3127.9237              3138.3155              3144.2550
 Red. masses --      1.0961                 1.1007                 1.1000
 Frc consts  --      6.3186                 6.3870                 6.4072
 IR Inten    --     43.6303                 0.8287                26.5796

                     91                     92                     93
                      A                      A                      A
 Frequencies --   3146.0041              3153.3471              3160.7017
 Red. masses --      1.1021                 1.1019                 1.1000
 Frc consts  --      6.4269                 6.4555                 6.4747
 IR Inten    --     24.1956                18.4127                 9.7697

                     94                     95                     96
                      A                      A                      A
 Frequencies --   3183.5185              3185.3896              3199.3187
 Red. masses --      1.0999                 1.0886                 1.0873
 Frc consts  --      6.5675                 6.5079                 6.5570
 IR Inten    --      3.4643                 6.9684                 0.3893

                     97                     98                     99
                      A                      A                      A
 Frequencies --   3207.8579              3217.8193              3227.8017
 Red. masses --      1.0899                 1.0940                 1.0983
 Frc consts  --      6.6082                 6.6741                 6.7422
 IR Inten    --      2.0616                 9.9258                11.2495

 - Thermochemistry -
 -------------------
 Temperature   298.150 Kelvin.  Pressure   1.00000 Atm.
 Atom     1 has atomic number  8 and mass  15.99491

 Molecular mass:   206.15449 amu.
 Principal axes and moments of inertia in atomic units:
                           1         2         3
     Eigenvalues --  2403.144183653.593934705.91999
           X            0.99979   0.01835  -0.00953
           Y           -0.01835   0.99983   0.00011
           Z            0.00953   0.00006   0.99995
 This molecule is an asymmetric top.
 Rotational symmetry number  1.
 Warning -- assumption of classical behavior for rotation
           may cause significant error
 Rotational temperatures (Kelvin)      0.03604     0.02371     0.01841
 Rotational constants (GHZ):           0.75099     0.49396     0.38350
 Zero-point vibrational energy     812387.7 (Joules/Mol)
                                  194.16532 (Kcal/Mol)
 Warning -- explicit consideration of  24 degrees of freedom as
           vibrations may cause significant error
 Vibrational temperatures:     58.20    70.18    93.01   102.90   139.45
          (Kelvin)            219.23   228.39   304.57   318.15   338.62
                              360.34   389.17   435.98   451.66   497.41
                              506.12   562.80   596.46   601.78   628.38
                              665.95   712.32   791.04   865.91   909.87
                              969.03  1047.27  1127.14  1202.03  1217.69
                             1267.47  1284.30  1327.44  1352.70  1355.90
                             1374.33  1393.07  1411.75  1418.73  1446.49
                             1470.80  1473.30  1531.82  1541.04  1597.19
                             1650.26  1660.36  1691.22  1695.85  1712.91
                             1731.49  1736.34  1760.20  1779.05  1845.35
                             1890.13  1927.83  1938.94  1947.97  1958.04
                             1975.65  1995.63  2016.78  2017.42  2042.38
                             2044.83  2133.21  2137.18  2142.27  2151.58
                             2153.67  2159.96  2162.78  2165.47  2181.61
                             2187.37  2216.48  2386.43  2411.76  4352.09
                             4388.73  4391.72  4409.36  4419.03  4436.69
                             4457.15  4488.75  4500.38  4515.34  4523.88
                             4526.40  4536.96  4547.54  4580.37  4583.07
                             4603.11  4615.39  4629.72  4644.09

 Zero-point correction=                           0.309422 (Hartree/Particle)
 Thermal correction to Energy=                    0.325138
 Thermal correction to Enthalpy=                  0.326082
 Thermal correction to Gibbs Free Energy=         0.265845
 Sum of electronic and zero-point Energies=           -636.979913
 Sum of electronic and thermal Energies=              -636.964197
 Sum of electronic and thermal Enthalpies=            -636.963253
 Sum of electronic and thermal Free Energies=         -637.023490

                     E (Thermal)             CV                S
                      KCal/Mol        Cal/Mol-Kelvin    Cal/Mol-Kelvin
 Total                  204.027             60.201            126.780
 Electronic               0.000              0.000              1.377
 Translational            0.889              2.981             41.874
 Rotational               0.889              2.981             32.091
 Vibrational            202.250             54.239             51.437
 Vibration     1          0.594              1.981              5.237
 Vibration     2          0.595              1.978              4.866
 Vibration     3          0.597              1.971              4.310
 Vibration     4          0.598              1.968              4.111
 Vibration     5          0.603              1.951              3.515
 Vibration     6          0.619              1.900              2.642
 Vibration     7          0.621              1.893              2.565
 Vibration     8          0.643              1.823              2.029
 Vibration     9          0.648              1.809              1.950
 Vibration    10          0.655              1.787              1.838
 Vibration    11          0.663              1.762              1.727
 Vibration    12          0.674              1.728              1.593
 Vibration    13          0.694              1.668              1.400
 Vibration    14          0.702              1.647              1.342
 Vibration    15          0.724              1.584              1.186
 Vibration    16          0.728              1.572              1.158
 Vibration    17          0.759              1.489              0.996
 Vibration    18          0.778              1.439              0.911
 Vibration    19          0.781              1.431              0.898
 Vibration    20          0.797              1.390              0.837
 Vibration    21          0.820              1.332              0.758
 Vibration    22          0.851              1.261              0.671
 Vibration    23          0.905              1.140              0.545
 Vibration    24          0.960              1.028              0.447

 Optimization completed.
    -- Stationary point found.

 1\1\GINC-BD24\Freq\UM062X\def2TZVP\C13H20N1O1(2)\MIYAO\07-Jan-2025\0\\
 #P Geom=AllCheck Guess=TCheck SCRF=Check GenChk UM062X/def2TZVP Freq\\
 data_set_12-catalyst-41\\0,2\O,-1.670766203,-0.0213936886,-1.562525652
 8\N,-1.4190788496,-0.2313199262,-0.3375654289\C,-1.6557287249,-1.60273
 26816,0.1639668445\C,-0.3986329659,0.6223117087,0.3025351085\C,-1.5830
 427097,-1.6647592739,1.6820150144\C,-3.0033088054,-2.087583664,-0.3457
 107662\C,-0.5112281228,2.0643758078,-0.2095559071\H,-1.8632367185,-2.6
 663200572,2.0072639986\H,-2.2835950569,-0.955806686,2.128876112\H,-0.5

 Normal termination of Gaussian 16 at Tue Jan  7 20:07:50 2025.
