 Gaussian 16, Revision C.01,
 Gaussian 16:  ES64L-G16RevC.01  3-Jul-2019

 ----------------------------------
 #p M062X/DEF2TZVP opt freq pop=NBO
 ----------------------------------

 -----------------------
 data_set_12-catalyst-42
 -----------------------
 Symbolic Z-matrix:
 Charge =  0 Multiplicity = 2

 SCF Done:  E(UM062X) =  -676.591865334     A.U. after   21 cycles
 SCF Done:  E(UM062X) =  -676.597048065     A.U. after   18 cycles
 SCF Done:  E(UM062X) =  -676.597056278     A.U. after   19 cycles
 SCF Done:  E(UM062X) =  -676.597171191     A.U. after   21 cycles
 SCF Done:  E(UM062X) =  -676.597292211     A.U. after   18 cycles
 SCF Done:  E(UM062X) =  -676.597297193     A.U. after   19 cycles
 SCF Done:  E(UM062X) =  -676.597297960     A.U. after   15 cycles
 SCF Done:  E(UM062X) =  -676.597300259     A.U. after   11 cycles
 SCF Done:  E(UM062X) =  -676.597300378     A.U. after    9 cycles
 SCF Done:  E(UM062X) =  -676.597300461     A.U. after   10 cycles
 SCF Done:  E(UM062X) =  -676.597300495     A.U. after   10 cycles
 SCF Done:  E(UM062X) =  -676.597300532     A.U. after    8 cycles
 SCF Done:  E(UM062X) =  -676.597300549     A.U. after    6 cycles
 Optimization completed.
    -- Stationary point found.

 1\1\GINC-BD24\FOpt\UM062X\def2TZVP\C14H22N1O1(2)\MIYAO\07-Jan-2025\0\\
 #p M062X/DEF2TZVP opt freq pop=NBO\\data_set_12-catalyst-42\\0,2\O,1.6
 302465498,-0.4133267016,1.3589091088\N,1.3598678897,-0.4467718468,0.12
 18744566\C,1.7490018999,-1.6559948369,-0.6244796077\C,0.3782343,0.4873
 098214,-0.4433529193\C,3.2576179759,-1.8284946001,-0.526785643\C,1.001
 009352,-2.8726141849,-0.0892563358\C,0.6199974952,1.9581202998,0.00017
 4578\H,3.571132583,-2.7075137774,-1.0899992291\H,3.5424307982,-1.95778
 61436,0.5169610766\H,3.7761663906,-0.9541575009,-0.9213914406\H,1.3239

 Normal termination of Gaussian 16 at Tue Jan  7 19:14:49 2025.

 --------------------------------------------------------------------
 #P Geom=AllCheck Guess=TCheck SCRF=Check GenChk UM062X/def2TZVP Freq
 --------------------------------------------------------------------

 Structure from the checkpoint file:  "outputs/data_set_12-catalyst-42.chk"
 -----------------------
 data_set_12-catalyst-42
 -----------------------
 Charge =  0 Multiplicity = 2

                         Standard orientation:
 ---------------------------------------------------------------------
 Center     Atomic      Atomic             Coordinates (Angstroms)
 Number     Number       Type             X           Y           Z
 ---------------------------------------------------------------------
      1          8           0        1.610080   -0.455120    1.367135
      2          7           0        1.337183   -0.489105    0.130668
      3          6           0        1.687857   -1.715096   -0.607345
      4          6           0        0.384093    0.470730   -0.440235
      5          6           0        3.190561   -1.933355   -0.510040
      6          6           0        0.903392   -2.904176   -0.062529
      7          6           0        0.671689    1.936533   -0.007616
      8          1           0        3.476076   -2.825658   -1.067223
      9          1           0        3.472613   -2.063861    0.534305
     10          1           0        3.735317   -1.078295   -0.911519
     11          1           0        1.197834   -3.815385   -0.584165
     12          1           0       -0.169983   -2.761128   -0.186050
     13          1           0        1.121367   -3.021946    0.999465
     14          6           0       -0.101269    2.850220   -0.964657
     15          6           0        2.170027    2.205624   -0.164839
     16          1           0        0.570030    0.439210   -1.517304
     17          1           0       -1.177398    2.683784   -0.893909
     18          1           0        0.205204    2.692896   -2.002081
     19          1           0        0.093636    3.893789   -0.711931
     20          1           0        2.513032    1.935989   -1.167774
     21          1           0        2.749547    1.639020    0.563110
     22          1           0        2.371884    3.267949   -0.016086
     23          6           0       -1.042004    0.004918   -0.212180
     24          6           0       -1.952373    0.019259   -1.263717
     25          6           0       -3.261609   -0.406034   -1.077530
     26          6           0       -3.671145   -0.859215    0.167125
     27          6           0       -2.765698   -0.885671    1.221102
     28          6           0       -1.460425   -0.457118    1.034920
     29          6           0        0.234163    2.257590    1.422959
     30          1           0       -1.632567    0.366471   -2.240109
     31          1           0       -3.956947   -0.389008   -1.906846
     32          1           0       -4.688794   -1.196164    0.315674
     33          1           0       -3.077873   -1.244746    2.193358
     34          1           0       -0.750033   -0.491645    1.851907
     35          1           0        1.405760   -1.533555   -1.646110
     36          1           0        0.484672    3.297927    1.642394
     37          1           0        0.736718    1.618783    2.145791
     38          1           0       -0.844583    2.145012    1.540840
 ---------------------------------------------------------------------

 SCF Done:  E(UM062X) =  -676.597300549     A.U. after    1 cycles

 The electronic state is 2-A.
 Alpha  occ. eigenvalues --  -19.62463 -14.83604 -10.58358 -10.57882 -10.55257
 Alpha  occ. eigenvalues --  -10.55172 -10.54563 -10.54459 -10.54336 -10.54259
 Alpha  occ. eigenvalues --  -10.53947 -10.52582 -10.52435 -10.52260 -10.51743
 Alpha  occ. eigenvalues --  -10.50956  -1.22945  -0.98290  -0.95436  -0.92766
 Alpha  occ. eigenvalues --   -0.87450  -0.84745  -0.84042  -0.78404  -0.77654
 Alpha  occ. eigenvalues --   -0.77124  -0.75262  -0.69589  -0.68141  -0.65263
 Alpha  occ. eigenvalues --   -0.62525  -0.60444  -0.58188  -0.56476  -0.54864
 Alpha  occ. eigenvalues --   -0.53267  -0.52947  -0.51447  -0.50936  -0.50113
 Alpha  occ. eigenvalues --   -0.49171  -0.48624  -0.46993  -0.46129  -0.45678
 Alpha  occ. eigenvalues --   -0.44631  -0.44467  -0.44198  -0.43626  -0.42350
 Alpha  occ. eigenvalues --   -0.41940  -0.40888  -0.40543  -0.40319  -0.38936
 Alpha  occ. eigenvalues --   -0.38401  -0.37818  -0.33601  -0.31210  -0.30460
 Alpha  occ. eigenvalues --   -0.25691
 Alpha virt. eigenvalues --    0.01576   0.01819   0.05052   0.08045   0.08455
 Alpha virt. eigenvalues --    0.08695   0.09809   0.11039   0.11300   0.11432
 Alpha virt. eigenvalues --    0.12734   0.12901   0.13334   0.13775   0.14198

  Beta  occ. eigenvalues --  -19.61418 -14.82787 -10.58394 -10.57920 -10.55207
  Beta  occ. eigenvalues --  -10.55157 -10.54558 -10.54457 -10.54335 -10.54257
  Beta  occ. eigenvalues --  -10.53943 -10.52558 -10.52401 -10.52260 -10.51744
  Beta  occ. eigenvalues --  -10.50958  -1.20024  -0.97747  -0.94439  -0.92378
  Beta  occ. eigenvalues --   -0.87175  -0.84715  -0.83209  -0.78215  -0.77647
  Beta  occ. eigenvalues --   -0.77110  -0.74525  -0.69509  -0.67901  -0.64517
  Beta  occ. eigenvalues --   -0.61993  -0.59834  -0.57717  -0.54466  -0.54356
  Beta  occ. eigenvalues --   -0.52690  -0.51911  -0.50979  -0.50813  -0.49618
  Beta  occ. eigenvalues --   -0.49014  -0.48268  -0.46640  -0.45547  -0.45382
  Beta  occ. eigenvalues --   -0.44439  -0.44228  -0.43642  -0.42556  -0.42231
  Beta  occ. eigenvalues --   -0.41650  -0.40443  -0.40280  -0.38813  -0.38739
  Beta  occ. eigenvalues --   -0.38011  -0.36785  -0.32260  -0.31178  -0.30065
  Beta virt. eigenvalues --   -0.01268   0.01740   0.02312   0.05060   0.08069
  Beta virt. eigenvalues --    0.08446   0.08664   0.09832   0.11042   0.11270
  Beta virt. eigenvalues --    0.11416   0.12737   0.12885   0.13337   0.13809

 Mulliken charges and spin densities:
               1          2
     1  O   -0.403714   0.514006
     2  N    0.204811   0.467356
     3  C   -0.070115  -0.032730
     4  C   -0.326901  -0.045320
     5  C   -0.407058   0.011403
     6  C   -0.440894   0.029576
     7  C    0.095972   0.009524
     8  H    0.139923  -0.000720
     9  H    0.168009  -0.001068
    10  H    0.140578   0.000944
    11  H    0.142523   0.000253
    12  H    0.166413   0.000138
    13  H    0.167944  -0.002447
    14  C   -0.485025  -0.001388
    15  C   -0.450316   0.008881
    16  H    0.217249   0.000278
    17  H    0.172371  -0.000095
    18  H    0.145736   0.000304
    19  H    0.155231   0.000501
    20  H    0.140689  -0.001283
    21  H    0.177725  -0.002767
    22  H    0.148824  -0.000429
    23  C    0.132915   0.045504
    24  C   -0.205133   0.006924
    25  C   -0.133152  -0.001720
    26  C   -0.155077   0.004084
    27  C   -0.119203  -0.004714
    28  C   -0.272158  -0.002342
    29  C   -0.491312  -0.002299
    30  H    0.162846  -0.000023
    31  H    0.142835   0.000453
    32  H    0.143645  -0.000047
    33  H    0.145839   0.000148
    34  H    0.219857  -0.002121
    35  H    0.130312   0.000959
    36  H    0.146547   0.000346
    37  H    0.186396   0.000135
    38  H    0.164870  -0.000202
 Sum of Mulliken charges =  -0.00000   1.00000

 Dipole moment (field-independent basis, Debye):
    X=             -0.8803    Y=             -0.3802    Z=             -2.3968  Tot=              2.5815
 Quadrupole moment (field-independent basis, Debye-Ang):
   XX=            -97.6614   YY=            -98.7957   ZZ=            -98.8702
   XY=              0.8634   XZ=             -4.0282   YZ=              0.0418

  Exact polarizability:     194.148       9.918     158.773       1.461      -5.131     155.717
 Approx polarizability:     224.121      12.057     183.723       5.738      -9.727     226.372

 Summary of Natural Population Analysis:

                                       Natural Population
                Natural  -----------------------------------------------
    Atom  No    Charge         Core      Valence    Rydberg      Total
 -----------------------------------------------------------------------
      O    1    0.03034      0.99993     2.96439    0.00534     3.96966
      N    2    0.26471      0.99974     2.21618    0.01937     3.23529
      C    3   -0.04778      0.99967     2.04098    0.00713     3.04778
      C    4   -0.05313      0.99955     2.04263    0.01095     3.05313
      C    5   -0.29437      0.99973     2.28870    0.00594     3.29437
      C    6   -0.29293      0.99972     2.28728    0.00593     3.29293
      C    7   -0.01324      0.99972     2.00544    0.00808     3.01324
      H    8    0.10391      0.00000     0.39568    0.00041     0.39609
      H    9    0.11208      0.00000     0.38725    0.00067     0.38792
      H   10    0.10511      0.00000     0.39444    0.00045     0.39489
      H   11    0.10470      0.00000     0.39489    0.00041     0.39530
      H   12    0.10936      0.00000     0.39023    0.00041     0.39064
      H   13    0.10990      0.00000     0.38946    0.00064     0.39010
      C   14   -0.30061      0.99971     2.29481    0.00609     3.30061
      C   15   -0.30137      0.99971     2.29546    0.00620     3.30137
      H   16    0.10391      0.00000     0.39451    0.00158     0.39609
      H   17    0.10730      0.00000     0.39221    0.00050     0.39270
      H   18    0.09962      0.00000     0.39986    0.00052     0.40038
      H   19    0.10600      0.00000     0.39350    0.00050     0.39400
      H   20    0.09910      0.00000     0.40040    0.00051     0.40090
      H   21    0.11341      0.00000     0.38603    0.00056     0.38659
      H   22    0.10361      0.00000     0.39590    0.00049     0.39639
      C   23   -0.00678      0.99951     1.99595    0.01131     3.00678
      C   24   -0.10511      0.99956     2.09651    0.00904     3.10511
      C   25   -0.10444      0.99961     2.09557    0.00926     3.10444
      C   26   -0.10473      0.99961     2.09609    0.00903     3.10473
      C   27   -0.10189      0.99961     2.09338    0.00889     3.10189
      C   28   -0.10492      0.99955     2.09612    0.00925     3.10492
      C   29   -0.30832      0.99970     2.30231    0.00631     3.30832
      H   30    0.10506      0.00000     0.39434    0.00060     0.39494
      H   31    0.10726      0.00000     0.39222    0.00053     0.39274
      H   32    0.10702      0.00000     0.39248    0.00050     0.39298
      H   33    0.10747      0.00000     0.39199    0.00054     0.39253
      H   34    0.11791      0.00000     0.38131    0.00078     0.38209
      H   35    0.09616      0.00000     0.40274    0.00110     0.40384
      H   36    0.10248      0.00000     0.39703    0.00049     0.39752
      H   37    0.11803      0.00000     0.38145    0.00052     0.38197
      H   38    0.10519      0.00000     0.39433    0.00048     0.39481
 =======================================================================
   * Total *    0.50000     15.99464    43.85404    0.15132    60.00000

                      1                      2                      3
                      A                      A                      A
 Frequencies --     24.1797                42.4303                63.3849
 Red. masses --      2.6290                 3.8491                 3.7527
 Frc consts  --      0.0009                 0.0041                 0.0089
 IR Inten    --      0.1438                 0.7770                 0.6730

                      4                      5                      6
                      A                      A                      A
 Frequencies --     74.2282                92.7048               159.6927
 Red. masses --      2.7208                 4.0190                 3.3274
 Frc consts  --      0.0088                 0.0204                 0.0500
 IR Inten    --      0.0432                 0.7120                 1.3477

                      7                      8                      9
                      A                      A                      A
 Frequencies --    163.7663               213.2318               226.3878
 Red. masses --      5.6920                 1.0937                 2.0052
 Frc consts  --      0.0899                 0.0293                 0.0606
 IR Inten    --      4.3100                 0.1509                 0.4188

                     10                     11                     12
                      A                      A                      A
 Frequencies --    239.6798               246.2214               259.5613
 Red. masses --      1.2958                 2.8472                 1.3709
 Frc consts  --      0.0439                 0.1017                 0.0544
 IR Inten    --      0.1224                 0.2878                 0.5141

                     13                     14                     15
                      A                      A                      A
 Frequencies --    276.0752               278.2610               296.0171
 Red. masses --      1.4110                 1.7642                 1.7884
 Frc consts  --      0.0634                 0.0805                 0.0923
 IR Inten    --      0.1700                 0.1347                 0.1589

                     16                     17                     18
                      A                      A                      A
 Frequencies --    311.3410               321.8168               329.6248
 Red. masses --      2.4858                 2.0416                 1.7811
 Frc consts  --      0.1420                 0.1246                 0.1140
 IR Inten    --      0.3030                 1.5002                 0.2559

                     19                     20                     21
                      A                      A                      A
 Frequencies --    351.0338               399.3492               412.5182
 Red. masses --      4.4925                 2.2974                 2.4672
 Frc consts  --      0.3262                 0.2159                 0.2474
 IR Inten    --     12.7609                 0.8362                 0.6525

                     22                     23                     24
                      A                      A                      A
 Frequencies --    418.5724               427.1149               488.6602
 Red. masses --      2.8820                 2.4817                 3.3894
 Frc consts  --      0.2975                 0.2667                 0.4769
 IR Inten    --      0.0606                 0.8727                 5.0326

                     25                     26                     27
                      A                      A                      A
 Frequencies --    504.2924               576.2530               628.6820
 Red. masses --      3.0254                 3.4045                 4.9740
 Frc consts  --      0.4533                 0.6661                 1.1583
 IR Inten    --      0.4932                 8.1442                 4.9626

                     28                     29                     30
                      A                      A                      A
 Frequencies --    636.3953               683.1996               728.8235
 Red. masses --      5.0667                 3.2669                 1.7094
 Frc consts  --      1.2090                 0.8984                 0.5350
 IR Inten    --      5.5161                 9.6675                47.3433

                     31                     32                     33
                      A                      A                      A
 Frequencies --    762.4360               816.4728               848.0187
 Red. masses --      2.3728                 2.4920                 3.9147
 Frc consts  --      0.8127                 0.9788                 1.6587
 IR Inten    --     17.0793                 8.9190                 0.9301

                     34                     35                     36
                      A                      A                      A
 Frequencies --    869.5741               883.5176               921.0181
 Red. masses --      3.3621                 1.2511                 2.8962
 Frc consts  --      1.4979                 0.5754                 1.4475
 IR Inten    --      6.7099                 0.2742                 6.1654

                     37                     38                     39
                      A                      A                      A
 Frequencies --    935.1526               943.0675               956.8930
 Red. masses --      1.1389                 1.7906                 1.5494
 Frc consts  --      0.5868                 0.9383                 0.8359
 IR Inten    --      2.0744                 5.7352                 0.7690

                     40                     41                     42
                      A                      A                      A
 Frequencies --    959.8310               963.0091               971.2286
 Red. masses --      1.6049                 1.5047                 1.2649
 Frc consts  --      0.8711                 0.8222                 0.7030
 IR Inten    --      1.3675                 0.3319                 0.2897

                     43                     44                     45
                      A                      A                      A
 Frequencies --    976.2915              1008.4280              1023.1069
 Red. masses --      1.6257                 1.3489                 5.9055
 Frc consts  --      0.9129                 0.8082                 3.6420
 IR Inten    --      0.5003                 0.0675                 0.3057

                     46                     47                     48
                      A                      A                      A
 Frequencies --   1027.7253              1056.2730              1058.1444
 Red. masses --      1.3230                 1.4610                 1.5433
 Frc consts  --      0.8233                 0.9604                 1.0181
 IR Inten    --      0.4147                 0.1944                 3.4331

                     49                     50                     51
                      A                      A                      A
 Frequencies --   1067.1316              1114.9199              1128.2070
 Red. masses --      1.9894                 1.5403                 1.8104
 Frc consts  --      1.3348                 1.1281                 1.3577
 IR Inten    --      2.0278                 6.8683                19.3003

                     52                     53                     54
                      A                      A                      A
 Frequencies --   1136.5236              1147.7323              1177.4958
 Red. masses --      2.2677                 2.0971                 1.1555
 Frc consts  --      1.7258                 1.6276                 0.9440
 IR Inten    --      3.0717                 6.8399                 0.1161

                     55                     56                     57
                      A                      A                      A
 Frequencies --   1209.3587              1210.7272              1220.5547
 Red. masses --      1.1295                 1.8399                 1.9132
 Frc consts  --      0.9733                 1.5890                 1.6793
 IR Inten    --      0.8926                 0.7009                 2.2882

                     58                     59                     60
                      A                      A                      A
 Frequencies --   1234.7080              1260.9802              1278.8403
 Red. masses --      2.9850                 2.6151                 2.9924
 Frc consts  --      2.6812                 2.4499                 2.8833
 IR Inten    --      6.9829                 4.7467                 8.5212

                     61                     62                     63
                      A                      A                      A
 Frequencies --   1300.6319              1342.0162              1344.3682
 Red. masses --      3.1396                 1.7152                 1.7304
 Frc consts  --      3.1292                 1.8200                 1.8426
 IR Inten    --      0.7453                 0.5318                 2.8394

                     64                     65                     66
                      A                      A                      A
 Frequencies --   1363.0664              1372.7925              1387.7542
 Red. masses --      1.3708                 1.5262                 1.4702
 Frc consts  --      1.5005                 1.6946                 1.6682
 IR Inten    --      2.1672                 6.4319                 5.4598

                     67                     68                     69
                      A                      A                      A
 Frequencies --   1395.1109              1398.2811              1399.1192
 Red. masses --      1.3132                 1.2535                 1.2938
 Frc consts  --      1.5059                 1.4440                 1.4922
 IR Inten    --      9.1235                 9.5576                14.8571

                     70                     71                     72
                      A                      A                      A
 Frequencies --   1410.6613              1429.9622              1478.7198
 Red. masses --      1.2413                 1.2425                 1.0447
 Frc consts  --      1.4554                 1.4970                 1.3459
 IR Inten    --     12.7253                16.4068                 0.6452

                     73                     74                     75
                      A                      A                      A
 Frequencies --   1480.5281              1489.7831              1490.6605
 Red. masses --      1.0428                 1.0525                 1.0481
 Frc consts  --      1.3467                 1.3763                 1.3722
 IR Inten    --      1.3028                 0.5703                 0.6962

                     76                     77                     78
                      A                      A                      A
 Frequencies --   1492.1809              1496.8486              1498.6367
 Red. masses --      1.0495                 1.5250                 1.3261
 Frc consts  --      1.3768                 2.0131                 1.7547
 IR Inten    --      1.2003                19.3797                 0.2222

                     79                     80                     81
                      A                      A                      A
 Frequencies --   1504.6455              1511.7695              1513.5899
 Red. masses --      1.0782                 1.0731                 1.0610
 Frc consts  --      1.4382                 1.4449                 1.4321
 IR Inten    --      6.7610                 5.3906                 5.8751

                     82                     83                     84
                      A                      A                      A
 Frequencies --   1526.0446              1539.3235              1540.7879
 Red. masses --      1.0850                 2.9572                 2.4991
 Frc consts  --      1.4887                 4.1284                 3.4956
 IR Inten    --     20.6757                 3.4765                 8.0984

                     85                     86                     87
                      A                      A                      A
 Frequencies --   1657.0675              1676.6598              3049.6418
 Red. masses --      5.9293                 5.9192                 1.0375
 Frc consts  --      9.5925                 9.8040                 5.6851
 IR Inten    --      1.2454                 3.3331                17.3485

                     88                     89                     90
                      A                      A                      A
 Frequencies --   3052.9504              3064.1904              3068.0612
 Red. masses --      1.0380                 1.0456                 1.0345
 Frc consts  --      5.7000                 5.7843                 5.7372
 IR Inten    --     26.0345                26.0982                15.5125

                     91                     92                     93
                      A                      A                      A
 Frequencies --   3069.1483              3071.7021              3094.5146
 Red. masses --      1.0751                 1.0354                 1.0851
 Frc consts  --      5.9669                 5.7559                 6.1224
 IR Inten    --      5.3699                15.3991                12.4080

                     94                     95                     96
                      A                      A                      A
 Frequencies --   3117.7955              3123.6892              3127.7807
 Red. masses --      1.0998                 1.1000                 1.0999
 Frc consts  --      6.2990                 6.3238                 6.3401
 IR Inten    --      9.9339                33.8546                19.8071

                     97                     98                     99
                      A                      A                      A
 Frequencies --   3136.5650              3144.9903              3147.7697
 Red. masses --      1.1016                 1.1029                 1.1029
 Frc consts  --      6.3853                 6.4270                 6.4386
 IR Inten    --     32.1740                 7.0433                25.4679

                    100                    101                    102
                      A                      A                      A
 Frequencies --   3150.7873              3152.8112              3158.9787
 Red. masses --      1.1010                 1.1035                 1.1023
 Frc consts  --      6.4400                 6.4628                 6.4809
 IR Inten    --      7.9058                 8.8087                12.1218

                    103                    104                    105
                      A                      A                      A
 Frequencies --   3171.6170              3186.9255              3202.6026
 Red. masses --      1.1003                 1.0884                 1.0866
 Frc consts  --      6.5212                 6.5128                 6.5665
 IR Inten    --      4.3684                 5.5041                 0.2068

                    106                    107                    108
                      A                      A                      A
 Frequencies --   3211.2525              3218.7412              3228.2256
 Red. masses --      1.0907                 1.0943                 1.0984
 Frc consts  --      6.6267                 6.6797                 6.7443
 IR Inten    --      6.8924                 5.4229                11.5418

 - Thermochemistry -
 -------------------
 Temperature   298.150 Kelvin.  Pressure   1.00000 Atm.
 Atom     1 has atomic number  8 and mass  15.99491

 Molecular mass:   220.17014 amu.
 Principal axes and moments of inertia in atomic units:
                           1         2         3
     Eigenvalues --  2767.504173793.823465253.57118
           X            0.99988  -0.01267  -0.00895
           Y            0.01268   0.99992   0.00146
           Z            0.00893  -0.00157   0.99996
 This molecule is an asymmetric top.
 Rotational symmetry number  1.
 Warning -- assumption of classical behavior for rotation
           may cause significant error
 Rotational temperatures (Kelvin)      0.03130     0.02283     0.01649
 Rotational constants (GHZ):           0.65212     0.47571     0.34353
 Zero-point vibrational energy     885431.7 (Joules/Mol)
                                  211.62325 (Kcal/Mol)
 Warning -- explicit consideration of  26 degrees of freedom as
           vibrations may cause significant error
 Vibrational temperatures:     34.79    61.05    91.20   106.80   133.38
          (Kelvin)            229.76   235.62   306.79   325.72   344.85
                              354.26   373.45   397.21   400.36   425.90
                              447.95   463.02   474.26   505.06   574.57
                              593.52   602.23   614.52   703.07   725.56
                              829.10   904.53   915.63   982.97  1048.61
                             1096.98  1174.72  1220.11  1251.12  1271.18
                             1325.14  1345.48  1356.86  1376.76  1380.98
                             1385.56  1397.38  1404.67  1450.90  1472.02
                             1478.67  1519.74  1522.43  1535.36  1604.12
                             1623.24  1635.20  1651.33  1694.15  1740.00
                             1741.97  1756.11  1776.47  1814.27  1839.97
                             1871.32  1930.86  1934.25  1961.15  1975.14
                             1996.67  2007.25  2011.81  2013.02  2029.63
                             2057.40  2127.55  2130.15  2143.47  2144.73
                             2146.92  2153.63  2156.20  2164.85  2175.10
                             2177.72  2195.64  2214.74  2216.85  2384.15
                             2412.34  4387.75  4392.51  4408.69  4414.26
                             4415.82  4419.49  4452.32  4485.81  4494.29
                             4500.18  4512.82  4524.94  4528.94  4533.28
                             4536.19  4545.07  4563.25  4585.28  4607.83
                             4620.28  4631.05  4644.70

 Zero-point correction=                           0.337243 (Hartree/Particle)
 Thermal correction to Energy=                    0.354360
 Thermal correction to Enthalpy=                  0.355304
 Thermal correction to Gibbs Free Energy=         0.292076
 Sum of electronic and zero-point Energies=           -676.260057
 Sum of electronic and thermal Energies=              -676.242941
 Sum of electronic and thermal Enthalpies=            -676.241997
 Sum of electronic and thermal Free Energies=         -676.305224

                     E (Thermal)             CV                S
                      KCal/Mol        Cal/Mol-Kelvin    Cal/Mol-Kelvin
 Total                  222.364             66.114            133.074
 Electronic               0.000              0.000              1.377
 Translational            0.889              2.981             42.071
 Rotational               0.889              2.981             32.378
 Vibrational            220.587             60.152             57.248
 Vibration     1          0.593              1.985              6.257
 Vibration     2          0.595              1.980              5.142
 Vibration     3          0.597              1.972              4.349
 Vibration     4          0.599              1.966              4.038
 Vibration     5          0.602              1.954              3.602
 Vibration     6          0.622              1.892              2.553
 Vibration     7          0.623              1.887              2.506
 Vibration     8          0.644              1.821              2.016
 Vibration     9          0.650              1.801              1.907
 Vibration    10          0.657              1.780              1.805
 Vibration    11          0.661              1.769              1.757
 Vibration    12          0.668              1.747              1.665
 Vibration    13          0.678              1.718              1.558
 Vibration    14          0.679              1.714              1.544
 Vibration    15          0.690              1.681              1.439
 Vibration    16          0.700              1.652              1.355
 Vibration    17          0.707              1.632              1.301
 Vibration    18          0.712              1.616              1.262
 Vibration    19          0.728              1.573              1.162
 Vibration    20          0.765              1.472              0.965
 Vibration    21          0.776              1.443              0.918
 Vibration    22          0.781              1.430              0.897
 Vibration    23          0.789              1.411              0.868
 Vibration    24          0.845              1.275              0.687
 Vibration    25          0.860              1.240              0.647
 Vibration    26          0.933              1.083              0.492

 Optimization completed.
    -- Stationary point found.

 1\1\GINC-BD24\Freq\UM062X\def2TZVP\C14H22N1O1(2)\MIYAO\07-Jan-2025\0\\
 #P Geom=AllCheck Guess=TCheck SCRF=Check GenChk UM062X/def2TZVP Freq\\
 data_set_12-catalyst-42\\0,2\O,1.6302465498,-0.4133267016,1.3589091088
 \N,1.3598678897,-0.4467718468,0.1218744566\C,1.7490018999,-1.655994836
 9,-0.6244796077\C,0.3782343,0.4873098214,-0.4433529193\C,3.2576179759,
 -1.8284946001,-0.526785643\C,1.001009352,-2.8726141849,-0.0892563358\C
 ,0.6199974952,1.9581202998,0.000174578\H,3.571132583,-2.7075137774,-1.
 0899992291\H,3.5424307982,-1.9577861436,0.5169610766\H,3.7761663906,-0

 Normal termination of Gaussian 16 at Tue Jan  7 22:20:51 2025.
