 Gaussian 16, Revision C.01,
 Gaussian 16:  ES64L-G16RevC.01  3-Jul-2019

 ----------------------------------
 #p M062X/DEF2TZVP opt freq pop=NBO
 ----------------------------------

 -----------------------------
 data_set_3-catalyst-Mix_5_opt
 -----------------------------
 Symbolic Z-matrix:
 Charge =  0 Multiplicity = 2

 SCF Done:  E(UM062X) =  -712.694145035     A.U. after   19 cycles
 SCF Done:  E(UM062X) =  -712.701633174     A.U. after   15 cycles
 SCF Done:  E(UM062X) =  -712.702171623     A.U. after   15 cycles
 SCF Done:  E(UM062X) =  -712.702217542     A.U. after   13 cycles
 SCF Done:  E(UM062X) =  -712.702230130     A.U. after   13 cycles
 SCF Done:  E(UM062X) =  -712.702252299     A.U. after   12 cycles
 SCF Done:  E(UM062X) =  -712.702253812     A.U. after    8 cycles
 SCF Done:  E(UM062X) =  -712.702254693     A.U. after    9 cycles
 SCF Done:  E(UM062X) =  -712.702254920     A.U. after    8 cycles
 Optimization completed.
    -- Stationary point found.

 1\1\GINC-BD22\FOpt\UM062X\def2TZVP\C11H22N1O3(2)\MIYAO\10-Jan-2025\0\\
 #p M062X/DEF2TZVP opt freq pop=NBO\\data_set_3-catalyst-Mix_5_opt\\0,2
 \O,-0.181555559,0.0913317229,-2.0039656586\N,-0.2188405391,-0.26958949
 95,-0.7906182901\C,1.0787411412,-0.5150246234,-0.1246562566\C,0.866307
 884,-0.6730134003,1.3782136751\C,-0.1814117669,-1.7337462705,1.7443952
 111\C,-1.2741680681,-1.9081424532,0.6774111164\C,-1.512637206,-0.66652
 72204,-0.1860264947\C,-2.0742261075,0.469456124,0.676184162\H,0.583477
 1547,0.3003126822,1.784194853\H,1.8296643272,-0.9140679007,1.825579225

 Normal termination of Gaussian 16 at Fri Jan 10 03:31:07 2025.

 --------------------------------------------------------------------
 #P Geom=AllCheck Guess=TCheck SCRF=Check GenChk UM062X/def2TZVP Freq
 --------------------------------------------------------------------

 Structure from the checkpoint file:  "outputs/data_set_3-catalyst-Mix_5_opt.chk"
 -----------------------------
 data_set_3-catalyst-Mix_5_opt
 -----------------------------
 Charge =  0 Multiplicity = 2

                         Standard orientation:
 ---------------------------------------------------------------------
 Center     Atomic      Atomic             Coordinates (Angstroms)
 Number     Number       Type             X           Y           Z
 ---------------------------------------------------------------------
      1          8           0        0.177569    0.075401    2.009769
      2          7           0        0.225764   -0.275094    0.793752
      3          6           0       -1.065131   -0.530893    0.118758
      4          6           0       -0.842740   -0.673969   -1.384166
      5          6           0        0.219841   -1.718800   -1.753232
      6          6           0        1.308928   -1.888570   -0.681759
      7          6           0        1.527543   -0.651245    0.193018
      8          6           0        2.079777    0.498529   -0.656867
      9          1           0       -0.569688    0.306028   -1.780683
     10          1           0       -1.800664   -0.923097   -1.838717
     11          1           0        0.670506   -1.434005   -2.705279
     12          1           0       -0.253657   -2.686523   -1.923618
     13          1           0        2.260366   -2.159790   -1.144505
     14          1           0        1.050288   -2.709029   -0.009588
     15          1           0        1.454903    0.675710   -1.540370
     16          1           0        3.079153    0.206744   -1.014716
     17          6           0       -1.934912    0.698442    0.395018
     18          1           0       -1.388857    1.600586    0.084349
     19          1           0       -2.133920    0.775042    1.468403
     20          6           0       -1.721806   -1.775305    0.718037
     21          8           0       -3.134495    0.569923   -0.328626
     22          8           0        2.156770    1.661810    0.117390
     23          6           0        2.657657    2.755656   -0.604586
     24          6           0       -4.022672    1.627457   -0.075108
     25          1           0       -2.749493   -1.846799    0.361982
     26          1           0       -1.724067   -1.695662    1.805012
     27          1           0       -1.190138   -2.683818    0.433408
     28          1           0        2.017778    2.989872   -1.464049
     29          1           0        3.672908    2.559915   -0.969979
     30          1           0        2.678693    3.610348    0.068043
     31          1           0       -4.918538    1.455056   -0.668251
     32          1           0       -3.582420    2.590159   -0.359740
     33          1           0       -4.294212    1.669611    0.985708
     34          6           0        2.508655   -0.960059    1.315885
     35          1           0        2.106789   -1.733956    1.968604
     36          1           0        2.700744   -0.072398    1.911930
     37          1           0        3.443595   -1.312870    0.877546
 ---------------------------------------------------------------------

 SCF Done:  E(UM062X) =  -712.702254920     A.U. after    1 cycles

 The electronic state is 2-A.
 Alpha  occ. eigenvalues --  -19.63034 -19.62853 -19.61405 -14.82592 -10.58687
 Alpha  occ. eigenvalues --  -10.58412 -10.57984 -10.57915 -10.57625 -10.57537
 Alpha  occ. eigenvalues --  -10.54183 -10.54005 -10.53467 -10.52010 -10.51768
 Alpha  occ. eigenvalues --   -1.22007  -1.16819  -1.16418  -0.98071  -0.92254
 Alpha  occ. eigenvalues --   -0.86840  -0.82546  -0.80924  -0.79600  -0.77909
 Alpha  occ. eigenvalues --   -0.74183  -0.74039  -0.69137  -0.67557  -0.59816
 Alpha  occ. eigenvalues --   -0.58582  -0.58093  -0.57632  -0.56636  -0.55731
 Alpha  occ. eigenvalues --   -0.54243  -0.53674  -0.53391  -0.50937  -0.50599
 Alpha  occ. eigenvalues --   -0.49306  -0.48410  -0.47297  -0.47063  -0.45926
 Alpha  occ. eigenvalues --   -0.45347  -0.44210  -0.43823  -0.42585  -0.42197
 Alpha  occ. eigenvalues --   -0.40920  -0.40050  -0.39315  -0.38763  -0.37929
 Alpha  occ. eigenvalues --   -0.36861  -0.33880  -0.33300  -0.32164  -0.24761
 Alpha virt. eigenvalues --    0.05097   0.06841   0.07662   0.08604   0.09411
 Alpha virt. eigenvalues --    0.10345   0.11093   0.11977   0.12160   0.13043
 Alpha virt. eigenvalues --    0.13567   0.13830   0.14244   0.15020   0.15324

  Beta  occ. eigenvalues --  -19.63034 -19.62853 -19.60304 -14.81792 -10.58643
  Beta  occ. eigenvalues --  -10.58451 -10.58022 -10.57914 -10.57624 -10.57516
  Beta  occ. eigenvalues --  -10.54163 -10.54006 -10.53464 -10.51976 -10.51763
  Beta  occ. eigenvalues --   -1.19119  -1.16744  -1.16373  -0.96891  -0.92075
  Beta  occ. eigenvalues --   -0.86192  -0.81584  -0.80770  -0.79113  -0.77859
  Beta  occ. eigenvalues --   -0.73945  -0.73906  -0.68848  -0.67109  -0.59405
  Beta  occ. eigenvalues --   -0.58443  -0.57005  -0.56625  -0.56321  -0.55687
  Beta  occ. eigenvalues --   -0.54041  -0.53187  -0.52645  -0.50478  -0.49557
  Beta  occ. eigenvalues --   -0.48590  -0.47635  -0.47228  -0.46721  -0.45674
  Beta  occ. eigenvalues --   -0.44552  -0.43799  -0.42884  -0.42140  -0.41139
  Beta  occ. eigenvalues --   -0.40831  -0.39609  -0.39133  -0.38201  -0.36850
  Beta  occ. eigenvalues --   -0.35780  -0.33716  -0.33234  -0.30694
  Beta virt. eigenvalues --    0.00668   0.05148   0.06896   0.07681   0.08623
  Beta virt. eigenvalues --    0.09440   0.10397   0.11182   0.12054   0.12190
  Beta virt. eigenvalues --    0.13033   0.13631   0.13858   0.14267   0.15089

 Mulliken charges and spin densities:
               1          2
     1  O   -0.389048   0.540680
     2  N    0.188876   0.450583
     3  C    0.067303   0.014513
     4  C   -0.384586  -0.006446
     5  C   -0.323676  -0.007409
     6  C   -0.367099   0.020950
     7  C    0.092536  -0.054624
     8  C   -0.164771   0.036205
     9  H    0.177994  -0.000902
    10  H    0.182588  -0.000566
    11  H    0.168906   0.000165
    12  H    0.172875   0.000162
    13  H    0.164922   0.003068
    14  H    0.183771  -0.002921
    15  H    0.140914  -0.005255
    16  H    0.145348   0.002392
    17  C   -0.129718  -0.014420
    18  H    0.146174   0.001535
    19  H    0.170752  -0.000006
    20  C   -0.465617   0.022910
    21  O   -0.308321  -0.000488
    22  O   -0.277861  -0.001548
    23  C   -0.260527  -0.001200
    24  C   -0.245548  -0.000070
    25  H    0.166217   0.000612
    26  H    0.174629  -0.003362
    27  H    0.138209  -0.000396
    28  H    0.124340   0.000185
    29  H    0.125083   0.000083
    30  H    0.146141   0.000244
    31  H    0.138637   0.000106
    32  H    0.125739  -0.000014
    33  H    0.129065  -0.000007
    34  C   -0.433115   0.007291
    35  H    0.157972  -0.000291
    36  H    0.186771  -0.000595
    37  H    0.134122  -0.001162
 Sum of Mulliken charges =  -0.00000   1.00000

 Dipole moment (field-independent basis, Debye):
    X=              0.4831    Y=             -0.0611    Z=             -3.2265  Tot=              3.2630
 Quadrupole moment (field-independent basis, Debye-Ang):
   XX=            -87.0767   YY=            -87.4975   ZZ=            -99.6179
   XY=             -2.3934   XZ=             -4.7607   YZ=             -1.9817

  Exact polarizability:     158.198      -2.187     142.068      -0.036       1.838     135.008
 Approx polarizability:     170.402      -0.231     166.334      -0.640       4.165     174.505

 Summary of Natural Population Analysis:

                                       Natural Population
                Natural  -----------------------------------------------
    Atom  No    Charge         Core      Valence    Rydberg      Total
 -----------------------------------------------------------------------
      O    1    0.05651      0.99993     2.93847    0.00509     3.94349
      N    2    0.24927      0.99970     2.23107    0.01996     3.25073
      C    3    0.02889      0.99964     1.96110    0.01037     2.97111
      C    4   -0.20533      0.99968     2.19819    0.00747     3.20533
      C    5   -0.20505      0.99973     2.19885    0.00647     3.20505
      C    6   -0.19813      0.99968     2.19132    0.00713     3.19813
      C    7    0.02579      0.99963     1.96485    0.00972     2.97421
      C    8   -0.02343      0.99958     2.01407    0.00978     3.02343
      H    9    0.10091      0.00000     0.39851    0.00058     0.39909
      H   10    0.11824      0.00000     0.38120    0.00056     0.38176
      H   11    0.10493      0.00000     0.39452    0.00055     0.39507
      H   12    0.10649      0.00000     0.39297    0.00054     0.39351
      H   13    0.10902      0.00000     0.39041    0.00056     0.39098
      H   14    0.10591      0.00000     0.39345    0.00064     0.39409
      H   15    0.07971      0.00000     0.41899    0.00130     0.42029
      H   16    0.08039      0.00000     0.41831    0.00129     0.41961
      C   17   -0.02522      0.99959     2.01507    0.01056     3.02522
      H   18    0.08205      0.00000     0.41679    0.00116     0.41795
      H   19    0.09239      0.00000     0.40655    0.00106     0.40761
      C   20   -0.29651      0.99970     2.29056    0.00626     3.29651
      O   21   -0.26051      0.99990     3.25239    0.00823     4.26051
      O   22   -0.25271      0.99989     3.23944    0.01339     4.25271
      C   23   -0.12058      0.99968     2.11423    0.00667     3.12058
      C   24   -0.12056      0.99968     2.11336    0.00751     3.12056
      H   25    0.11299      0.00000     0.38646    0.00055     0.38701
      H   26    0.11291      0.00000     0.38656    0.00053     0.38709
      H   27    0.10057      0.00000     0.39890    0.00053     0.39943
      H   28    0.07823      0.00000     0.42079    0.00098     0.42177
      H   29    0.07863      0.00000     0.42038    0.00099     0.42137
      H   30    0.09644      0.00000     0.40297    0.00059     0.40356
      H   31    0.09378      0.00000     0.40560    0.00062     0.40622
      H   32    0.07946      0.00000     0.41954    0.00099     0.42054
      H   33    0.08067      0.00000     0.41832    0.00101     0.41933
      C   34   -0.29655      0.99971     2.28991    0.00693     3.29655
      H   35    0.10858      0.00000     0.39090    0.00052     0.39142
      H   36    0.12179      0.00000     0.37768    0.00054     0.37821
      H   37    0.10003      0.00000     0.39953    0.00044     0.39997
 =======================================================================
   * Total *    0.50000     14.99571    43.85219    0.15210    59.00000

                      1                      2                      3
                      A                      A                      A
 Frequencies --     31.7265                66.0769                72.8450
 Red. masses --      4.3472                 2.2384                 2.7319
 Frc consts  --      0.0026                 0.0058                 0.0085
 IR Inten    --      0.6287                 3.9353                 2.7012

                      4                      5                      6
                      A                      A                      A
 Frequencies --     88.6947               100.1467               104.8043
 Red. masses --      4.6110                 3.0866                 1.9881
 Frc consts  --      0.0214                 0.0182                 0.0129
 IR Inten    --      0.9802                 1.1710                 2.7841

                      7                      8                      9
                      A                      A                      A
 Frequencies --    131.7454               166.1633               199.8457
 Red. masses --      3.7061                 1.8294                 2.5163
 Frc consts  --      0.0379                 0.0298                 0.0592
 IR Inten    --      3.1776                 0.0155                 0.3379

                     10                     11                     12
                      A                      A                      A
 Frequencies --    206.2988               230.6045               231.4980
 Red. masses --      2.4396                 1.3031                 1.2716
 Frc consts  --      0.0612                 0.0408                 0.0402
 IR Inten    --      1.5577                 2.8299                 1.8452

                     13                     14                     15
                      A                      A                      A
 Frequencies --    248.1603               266.2684               289.9743
 Red. masses --      1.3487                 1.1063                 2.7112
 Frc consts  --      0.0489                 0.0462                 0.1343
 IR Inten    --      0.8545                 0.5220                 1.6317

                     16                     17                     18
                      A                      A                      A
 Frequencies --    299.0640               304.0307               332.6053
 Red. masses --      2.5010                 3.2631                 2.4807
 Frc consts  --      0.1318                 0.1777                 0.1617
 IR Inten    --      0.5782                 0.8512                 0.9751

                     19                     20                     21
                      A                      A                      A
 Frequencies --    365.2639               373.5754               390.3610
 Red. masses --      2.9205                 2.3032                 3.1821
 Frc consts  --      0.2296                 0.1894                 0.2857
 IR Inten    --      0.8046                 0.0714                 3.2972

                     22                     23                     24
                      A                      A                      A
 Frequencies --    396.6145               442.5042               477.5224
 Red. masses --      3.4776                 3.7220                 4.0934
 Frc consts  --      0.3223                 0.4294                 0.5499
 IR Inten    --      7.8655                 0.5783                 1.5387

                     25                     26                     27
                      A                      A                      A
 Frequencies --    531.9476               553.3320               584.6399
 Red. masses --      3.3179                 3.6073                 3.2342
 Frc consts  --      0.5532                 0.6507                 0.6513
 IR Inten    --      3.0087                 5.0600                10.4607

                     28                     29                     30
                      A                      A                      A
 Frequencies --    690.7550               720.2674               755.0218
 Red. masses --      2.8054                 3.4962                 1.3839
 Frc consts  --      0.7887                 1.0686                 0.4648
 IR Inten    --      0.6358                 6.3160                 3.4417

                     31                     32                     33
                      A                      A                      A
 Frequencies --    847.6123               874.1626               894.2867
 Red. masses --      2.4372                 2.1495                 2.3901
 Frc consts  --      1.0317                 0.9678                 1.1262
 IR Inten    --      5.4147                 2.0892                 0.9915

                     34                     35                     36
                      A                      A                      A
 Frequencies --    936.8385               972.1483               986.8265
 Red. masses --      1.8321                 1.5865                 1.4607
 Frc consts  --      0.9474                 0.8834                 0.8381
 IR Inten    --      0.1584                 1.3761                 2.8948

                     37                     38                     39
                      A                      A                      A
 Frequencies --    994.2037              1002.4348              1023.1889
 Red. masses --      1.6826                 1.6890                 2.0662
 Frc consts  --      0.9799                 1.0000                 1.2745
 IR Inten    --      0.9254                 2.2022                 6.1970

                     40                     41                     42
                      A                      A                      A
 Frequencies --   1034.3648              1051.7501              1079.3406
 Red. masses --      2.8517                 2.7581                 2.1274
 Frc consts  --      1.7976                 1.7976                 1.4602
 IR Inten    --     18.5991                18.5316                 7.4403

                     43                     44                     45
                      A                      A                      A
 Frequencies --   1110.9309              1135.3290              1172.2855
 Red. masses --      1.8342                 1.5377                 2.2262
 Frc consts  --      1.3337                 1.1678                 1.8025
 IR Inten    --      0.2391                 6.5268                 9.8109

                     46                     47                     48
                      A                      A                      A
 Frequencies --   1183.1062              1186.7869              1191.7360
 Red. masses --      1.5433                 1.4121                 2.0721
 Frc consts  --      1.2728                 1.1718                 1.7339
 IR Inten    --      9.8392                17.6522                56.6476

                     49                     50                     51
                      A                      A                      A
 Frequencies --   1193.4306              1202.4733              1218.6948
 Red. masses --      1.9859                 2.0296                 2.0784
 Frc consts  --      1.6665                 1.7291                 1.8188
 IR Inten    --     80.6694                25.6701                12.7690

                     52                     53                     54
                      A                      A                      A
 Frequencies --   1234.8002              1242.3253              1251.3596
 Red. masses --      3.2066                 2.0940                 2.0610
 Frc consts  --      2.8806                 1.9042                 1.9015
 IR Inten    --     68.3883                60.6168                69.3903

                     55                     56                     57
                      A                      A                      A
 Frequencies --   1259.7879              1278.2413              1287.1977
 Red. masses --      2.3739                 1.4595                 1.5493
 Frc consts  --      2.2198                 1.4050                 1.5125
 IR Inten    --     51.1513                 0.2679                 2.5630

                     58                     59                     60
                      A                      A                      A
 Frequencies --   1300.7752              1328.7593              1335.7111
 Red. masses --      1.4558                 1.3561                 1.7492
 Frc consts  --      1.4513                 1.4107                 1.8387
 IR Inten    --      8.2267                 3.6931                22.6840

                     61                     62                     63
                      A                      A                      A
 Frequencies --   1369.7050              1380.9044              1391.9976
 Red. masses --      1.4405                 1.5872                 1.4308
 Frc consts  --      1.5923                 1.7833                 1.6334
 IR Inten    --      1.2542                 4.8611                 9.5892

                     64                     65                     66
                      A                      A                      A
 Frequencies --   1403.0193              1407.3124              1418.1345
 Red. masses --      1.5352                 1.3339                 1.3768
 Frc consts  --      1.7805                 1.5565                 1.6314
 IR Inten    --      7.2535                 5.0169                12.8151

                     67                     68                     69
                      A                      A                      A
 Frequencies --   1427.1599              1477.9686              1480.7343
 Red. masses --      1.3563                 1.0805                 1.1323
 Frc consts  --      1.6276                 1.3906                 1.4627
 IR Inten    --      8.4195                 4.2560                 2.5650

                     70                     71                     72
                      A                      A                      A
 Frequencies --   1484.4694              1485.4312              1490.4345
 Red. masses --      1.1742                 1.2656                 1.1412
 Frc consts  --      1.5246                 1.6453                 1.4937
 IR Inten    --      1.1274                 2.2182                 1.8140

                     73                     74                     75
                      A                      A                      A
 Frequencies --   1492.3916              1497.1027              1498.2267
 Red. masses --      1.3824                 1.0441                 1.0442
 Frc consts  --      1.8141                 1.3788                 1.3810
 IR Inten    --      0.3188                 7.3978                 8.3461

                     76                     77                     78
                      A                      A                      A
 Frequencies --   1501.2704              1503.3735              1507.8190
 Red. masses --      1.0980                 1.3837                 1.2399
 Frc consts  --      1.4581                 1.8426                 1.6608
 IR Inten    --      7.1312                 5.9489                 7.9986

                     79                     80                     81
                      A                      A                      A
 Frequencies --   1510.0361              1512.1294              1517.1094
 Red. masses --      1.0671                 1.0604                 1.1416
 Frc consts  --      1.4335                 1.4286                 1.5481
 IR Inten    --     26.9750                 7.2565                 3.3473

                     82                     83                     84
                      A                      A                      A
 Frequencies --   1527.8455              1531.1118              2991.7521
 Red. masses --      1.0841                 1.0971                 1.0660
 Frc consts  --      1.4910                 1.5153                 5.6214
 IR Inten    --      6.3620                 6.6950                35.0946

                     85                     86                     87
                      A                      A                      A
 Frequencies --   3009.0694              3012.1836              3019.4921
 Red. masses --      1.0614                 1.0380                 1.0383
 Frc consts  --      5.6623                 5.5491                 5.5773
 IR Inten    --     34.2272                55.1158                64.1782

                     88                     89                     90
                      A                      A                      A
 Frequencies --   3053.4096              3062.0451              3069.5756
 Red. masses --      1.0903                 1.1035                 1.0504
 Frc consts  --      5.9889                 6.0960                 5.8312
 IR Inten    --     44.7885                29.5666                 5.6563

                     91                     92                     93
                      A                      A                      A
 Frequencies --   3070.0984              3072.6859              3077.8243
 Red. masses --      1.1018                 1.0439                 1.0438
 Frc consts  --      6.1186                 5.8071                 5.8260
 IR Inten    --     44.9556                14.3588                16.9447

                     94                     95                     96
                      A                      A                      A
 Frequencies --   3079.8382              3081.6405              3086.7276
 Red. masses --      1.0650                 1.0928                 1.0698
 Frc consts  --      5.9522                 6.1144                 6.0058
 IR Inten    --     42.1503                 7.2949                24.3267

                     97                     98                     99
                      A                      A                      A
 Frequencies --   3103.8257              3120.7910              3139.6740
 Red. masses --      1.1008                 1.1020                 1.0987
 Frc consts  --      6.2480                 6.3234                 6.3811
 IR Inten    --      8.6377                26.6446                18.0948

                    100                    101                    102
                      A                      A                      A
 Frequencies --   3148.5890              3151.3377              3153.6267
 Red. masses --      1.1021                 1.1015                 1.0984
 Frc consts  --      6.4374                 6.4449                 6.4361
 IR Inten    --     17.6310                16.6526                22.3420

                    103                    104                    105
                      A                      A                      A
 Frequencies --   3155.8066              3157.6518              3187.6601
 Red. masses --      1.0975                 1.1033                 1.1005
 Frc consts  --      6.4400                 6.4813                 6.5883
 IR Inten    --     18.0256                 5.0323                 3.0713

 - Thermochemistry -
 -------------------
 Temperature   298.150 Kelvin.  Pressure   1.00000 Atm.
 Atom     1 has atomic number  8 and mass  15.99491

 Molecular mass:   216.15997 amu.
 Principal axes and moments of inertia in atomic units:
                           1         2         3
     Eigenvalues --  2246.878474132.394794801.33872
           X            0.99992  -0.00859  -0.00890
           Y            0.00841   0.99977  -0.01953
           Z            0.00906   0.01946   0.99977
 This molecule is an asymmetric top.
 Rotational symmetry number  1.
 Warning -- assumption of classical behavior for rotation
           may cause significant error
 Rotational temperatures (Kelvin)      0.03855     0.02096     0.01804
 Rotational constants (GHZ):           0.80322     0.43673     0.37588
 Zero-point vibrational energy     868992.7 (Joules/Mol)
                                  207.69425 (Kcal/Mol)
 Warning -- explicit consideration of  27 degrees of freedom as
           vibrations may cause significant error
 Vibrational temperatures:     45.65    95.07   104.81   127.61   144.09
          (Kelvin)            150.79   189.55   239.07   287.53   296.82
                              331.79   333.07   357.05   383.10   417.21
                              430.29   437.43   478.54   525.53   537.49
                              561.64   570.64   636.66   687.05   765.35
                              796.12   841.17   993.84  1036.30  1086.31
                             1219.53  1257.72  1286.68  1347.90  1398.70
                             1419.82  1430.44  1442.28  1472.14  1488.22
                             1513.23  1552.93  1598.38  1633.49  1686.66
                             1702.23  1707.52  1714.64  1717.08  1730.09
                             1753.43  1776.60  1787.43  1800.43  1812.55
                             1839.10  1851.99  1871.53  1911.79  1921.79
                             1970.70  1986.81  2002.77  2018.63  2024.81
                             2040.38  2053.36  2126.47  2130.45  2135.82
                             2137.20  2144.40  2147.22  2154.00  2155.61
                             2159.99  2163.02  2169.42  2172.61  2175.62
                             2182.78  2198.23  2202.93  4304.46  4329.38
                             4333.86  4344.38  4393.18  4405.60  4416.43
                             4417.19  4420.91  4428.30  4431.20  4433.79
                             4441.11  4465.71  4490.12  4517.29  4530.12
                             4534.07  4537.37  4540.50  4543.16  4586.33

 Zero-point correction=                           0.330982 (Hartree/Particle)
 Thermal correction to Energy=                    0.348135
 Thermal correction to Enthalpy=                  0.349079
 Thermal correction to Gibbs Free Energy=         0.285989
 Sum of electronic and zero-point Energies=           -712.371273
 Sum of electronic and thermal Energies=              -712.354120
 Sum of electronic and thermal Enthalpies=            -712.353176
 Sum of electronic and thermal Free Energies=         -712.416265

                     E (Thermal)             CV                S
                      KCal/Mol        Cal/Mol-Kelvin    Cal/Mol-Kelvin
 Total                  218.458             63.710            132.784
 Electronic               0.000              0.000              1.377
 Translational            0.889              2.981             42.016
 Rotational               0.889              2.981             32.167
 Vibrational            216.681             57.749             57.224
 Vibration     1          0.594              1.983              5.718
 Vibration     2          0.597              1.970              4.267
 Vibration     3          0.599              1.967              4.075
 Vibration     4          0.602              1.957              3.689
 Vibration     5          0.604              1.949              3.451
 Vibration     6          0.605              1.945              3.363
 Vibration     7          0.612              1.922              2.920
 Vibration     8          0.624              1.884              2.478
 Vibration     9          0.638              1.840              2.135
 Vibration    10          0.641              1.831              2.076
 Vibration    11          0.652              1.794              1.874
 Vibration    12          0.653              1.793              1.867
 Vibration    13          0.662              1.766              1.744
 Vibration    14          0.672              1.735              1.620
 Vibration    15          0.686              1.692              1.474
 Vibration    16          0.692              1.675              1.422
 Vibration    17          0.695              1.666              1.395
 Vibration    18          0.715              1.610              1.247
 Vibration    19          0.738              1.544              1.100
 Vibration    20          0.745              1.526              1.065
 Vibration    21          0.758              1.491              0.999
 Vibration    22          0.763              1.477              0.975
 Vibration    23          0.802              1.377              0.819
 Vibration    24          0.834              1.300              0.717
 Vibration    25          0.887              1.179              0.583
 Vibration    26          0.909              1.132              0.537
 Vibration    27          0.942              1.065              0.477

                           ! Non-Optimized Parameters !

 1\1\GINC-BD22\Freq\UM062X\def2TZVP\C11H22N1O3(2)\MIYAO\10-Jan-2025\0\\
 #P Geom=AllCheck Guess=TCheck SCRF=Check GenChk UM062X/def2TZVP Freq\\
 data_set_3-catalyst-Mix_5_opt\\0,2\O,-0.181555559,0.0913317229,-2.0039
 656586\N,-0.2188405391,-0.2695894995,-0.7906182901\C,1.0787411412,-0.5
 150246234,-0.1246562566\C,0.866307884,-0.6730134003,1.3782136751\C,-0.
 1814117669,-1.7337462705,1.7443952111\C,-1.2741680681,-1.9081424532,0.
 6774111164\C,-1.512637206,-0.6665272204,-0.1860264947\C,-2.0742261075,
 0.469456124,0.676184162\H,0.5834771547,0.3003126822,1.784194853\H,1.82

 Normal termination of Gaussian 16 at Fri Jan 10 05:45:25 2025.
