 Gaussian 16, Revision C.01,
 Gaussian 16:  ES64L-G16RevC.01  3-Jul-2019

 ----------------------------------
 #p M062X/DEF2TZVP opt freq pop=NBO
 ----------------------------------

 ------------------------------
 data_set_3-catalyst-Mix_18_opt
 ------------------------------
 Symbolic Z-matrix:
 Charge =  0 Multiplicity = 2

 SCF Done:  E(UM062X) =  -636.304524501     A.U. after   19 cycles
 SCF Done:  E(UM062X) =  -636.310855127     A.U. after   16 cycles
 SCF Done:  E(UM062X) =  -636.310411523     A.U. after   15 cycles
 SCF Done:  E(UM062X) =  -636.311195090     A.U. after   15 cycles
 SCF Done:  E(UM062X) =  -636.311284408     A.U. after   14 cycles
 SCF Done:  E(UM062X) =  -636.311347409     A.U. after   13 cycles
 SCF Done:  E(UM062X) =  -636.311358616     A.U. after   13 cycles
 SCF Done:  E(UM062X) =  -636.311368511     A.U. after   11 cycles
 SCF Done:  E(UM062X) =  -636.311368083     A.U. after   11 cycles
 SCF Done:  E(UM062X) =  -636.311368862     A.U. after   13 cycles
 SCF Done:  E(UM062X) =  -636.311371849     A.U. after   11 cycles
 SCF Done:  E(UM062X) =  -636.311372012     A.U. after    8 cycles
 SCF Done:  E(UM062X) =  -636.311372017     A.U. after    6 cycles
 Optimization completed.
    -- Stationary point found.

 1\1\GINC-BD23\FOpt\UM062X\def2TZVP\C11H20N1O2(2)\MIYAO\09-Jan-2025\0\\
 #p M062X/DEF2TZVP opt freq pop=NBO\\data_set_3-catalyst-Mix_18_opt\\0,
 2\O,-0.7715987119,-1.8612357065,0.1154604946\N,-0.1609451785,-0.780019
 3816,-0.1393613977\C,1.3270976987,-0.8516134768,-0.1212532471\C,-0.948
 6155413,0.4721992923,0.0174402837\C,1.7371623097,-2.1210792356,-0.8593
 05916\C,1.8236089653,-0.911042125,1.3251799479\C,-1.0864145289,0.86009
 65067,1.5077263997\C,-2.3382378928,0.2376675331,-0.5939162228\H,1.2970
 17665,-2.1394014445,-1.85707574\H,1.4061999703,-3.0051031835,-0.319908

 Normal termination of Gaussian 16 at Thu Jan  9 18:21:53 2025.

 --------------------------------------------------------------------
 #P Geom=AllCheck Guess=TCheck SCRF=Check GenChk UM062X/def2TZVP Freq
 --------------------------------------------------------------------

 Structure from the checkpoint file:  "outputs/data_set_3-catalyst-Mix_18_opt.chk"
 ------------------------------
 data_set_3-catalyst-Mix_18_opt
 ------------------------------
 Charge =  0 Multiplicity = 2

                         Standard orientation:
 ---------------------------------------------------------------------
 Center     Atomic      Atomic             Coordinates (Angstroms)
 Number     Number       Type             X           Y           Z
 ---------------------------------------------------------------------
      1          8           0       -0.771687   -1.852008    0.214519
      2          7           0       -0.161292   -0.787148   -0.102265
      3          6           0        1.326754   -0.859454   -0.087599
      4          6           0       -0.946985    0.472746   -0.010536
      5          6           0        1.731928   -2.168005   -0.756886
      6          6           0        1.830427   -0.840026    1.357448
      7          6           0       -1.076973    0.942004    1.456879
      8          6           0       -2.339864    0.206714   -0.601235
      9          1           0        1.286788   -2.240515   -1.749963
     10          1           0        1.402827   -3.020694   -0.168161
     11          1           0        1.343937   -1.634998    1.922172
     12          1           0        1.641304    0.115832    1.846380
     13          1           0       -1.808745    1.755352    1.448705
     14          1           0       -0.134591    1.397722    1.771090
     15          1           0       -2.856724    1.170243   -0.616812
     16          1           0       -2.886826   -0.441315    0.081686
     17          6           0       -2.355055   -0.419695   -1.989646
     18          6           0       -1.499496   -0.112104    2.470868
     19          6           0        1.913560    0.319524   -0.880212
     20          6           0        1.232324    1.610849   -0.512473
     21          6           0       -0.244791    1.591540   -0.802521
     22          1           0       -3.383588   -0.542584   -2.329219
     23          1           0       -1.887313   -1.402977   -1.973113
     24          1           0       -1.843861    0.195382   -2.731683
     25          1           0       -0.759200   -0.905344    2.557798
     26          1           0       -2.445966   -0.580430    2.204189
     27          1           0       -1.617333    0.351871    3.450676
     28          1           0        1.754753    0.139635   -1.947527
     29          1           0        2.982493    0.396042   -0.686749
     30          1           0       -0.374208    1.424265   -1.873829
     31          1           0       -0.684028    2.552077   -0.536706
     32          8           0        1.802092    2.542966   -0.006088
     33          1           0        2.818084   -2.196015   -0.853827
     34          1           0        2.907030   -1.015744    1.368785
 ---------------------------------------------------------------------

 SCF Done:  E(UM062X) =  -636.311372017     A.U. after    1 cycles

 The electronic state is 2-A.
 Alpha  occ. eigenvalues --  -19.63196 -19.62859 -14.84392 -10.63564 -10.60268
 Alpha  occ. eigenvalues --  -10.59981 -10.55395 -10.55233 -10.54270 -10.53884
 Alpha  occ. eigenvalues --  -10.53698 -10.53296 -10.52484 -10.52291  -1.23722
 Alpha  occ. eigenvalues --   -1.18132  -0.99156  -0.94458  -0.86412  -0.85745
 Alpha  occ. eigenvalues --   -0.84877  -0.80831  -0.79616  -0.75575  -0.70781
 Alpha  occ. eigenvalues --   -0.68960  -0.64708  -0.60993  -0.58482  -0.57942
 Alpha  occ. eigenvalues --   -0.56619  -0.54837  -0.54351  -0.52440  -0.51773
 Alpha  occ. eigenvalues --   -0.51355  -0.50418  -0.48733  -0.47554  -0.46287
 Alpha  occ. eigenvalues --   -0.46129  -0.45751  -0.45464  -0.44627  -0.44039
 Alpha  occ. eigenvalues --   -0.43089  -0.42565  -0.41680  -0.40968  -0.40226
 Alpha  occ. eigenvalues --   -0.39016  -0.38772  -0.34346  -0.32435  -0.26711
 Alpha virt. eigenvalues --    0.01103   0.05761   0.07284   0.07679   0.08946
 Alpha virt. eigenvalues --    0.09189   0.10682   0.11559   0.11828   0.12659
 Alpha virt. eigenvalues --    0.12978   0.13968   0.14130   0.14551   0.14977

  Beta  occ. eigenvalues --  -19.62857 -19.62117 -14.83627 -10.63565 -10.60301
  Beta  occ. eigenvalues --  -10.60012 -10.55391 -10.55229 -10.54229 -10.53873
  Beta  occ. eigenvalues --  -10.53662 -10.53285 -10.52486 -10.52291  -1.20831
  Beta  occ. eigenvalues --   -1.18117  -0.97966  -0.94295  -0.86256  -0.85666
  Beta  occ. eigenvalues --   -0.83254  -0.80516  -0.79445  -0.75276  -0.70632
  Beta  occ. eigenvalues --   -0.68521  -0.64538  -0.59767  -0.58112  -0.56508
  Beta  occ. eigenvalues --   -0.54976  -0.54686  -0.53848  -0.52173  -0.51511
  Beta  occ. eigenvalues --   -0.51026  -0.49807  -0.48431  -0.47021  -0.46140
  Beta  occ. eigenvalues --   -0.45569  -0.45501  -0.44626  -0.43964  -0.43124
  Beta  occ. eigenvalues --   -0.42960  -0.42315  -0.41141  -0.40409  -0.39448
  Beta  occ. eigenvalues --   -0.38698  -0.37317  -0.32953  -0.32141
  Beta virt. eigenvalues --   -0.01854   0.01307   0.05808   0.07295   0.07695
  Beta virt. eigenvalues --    0.08999   0.09192   0.10682   0.11592   0.11908
  Beta virt. eigenvalues --    0.12727   0.13122   0.14014   0.14170   0.14617

 Mulliken charges and spin densities:
               1          2
     1  O   -0.375245   0.530854
     2  N    0.148659   0.438122
     3  C    0.031683  -0.007597
     4  C    0.067732   0.006896
     5  C   -0.417348  -0.009541
     6  C   -0.492498   0.025887
     7  C   -0.335131   0.027153
     8  C   -0.248529  -0.010340
     9  H    0.152269   0.001911
    10  H    0.175997   0.000362
    11  H    0.184523  -0.002600
    12  H    0.169749  -0.000882
    13  H    0.158552   0.004506
    14  H    0.177122  -0.001331
    15  H    0.145989  -0.000918
    16  H    0.156022  -0.000985
    17  C   -0.444796   0.005412
    18  C   -0.401550  -0.005849
    19  C   -0.343396   0.013089
    20  C    0.227043  -0.009869
    21  C   -0.362617   0.004089
    22  H    0.146919  -0.000677
    23  H    0.169814  -0.003114
    24  H    0.124161  -0.000969
    25  H    0.148965   0.000375
    26  H    0.144078   0.001959
    27  H    0.144946   0.002551
    28  H    0.182848  -0.004624
    29  H    0.170317  -0.000747
    30  H    0.180606  -0.004631
    31  H    0.173187  -0.001101
    32  O   -0.264320   0.000823
    33  H    0.145514  -0.001144
    34  H    0.158736   0.002931
 Sum of Mulliken charges =  -0.00000   1.00000

 Dipole moment (field-independent basis, Debye):
    X=             -0.2043    Y=             -0.2142    Z=             -1.0662  Tot=              1.1065
 Quadrupole moment (field-independent basis, Debye-Ang):
   XX=            -86.5296   YY=            -99.3633   ZZ=            -84.6094
   XY=            -10.7912   XZ=             -1.0115   YZ=             -0.9475

  Exact polarizability:     142.778       0.498     135.522       0.940       2.321     129.386
 Approx polarizability:     166.813       6.927     173.212       1.169       2.367     156.971

 Summary of Natural Population Analysis:

                                       Natural Population
                Natural  -----------------------------------------------
    Atom  No    Charge         Core      Valence    Rydberg      Total
 -----------------------------------------------------------------------
      O    1    0.05211      0.99993     2.94270    0.00526     3.94789
      N    2    0.23538      0.99970     2.24465    0.02028     3.26462
      C    3    0.04713      0.99966     1.94473    0.00848     2.95287
      C    4    0.05863      0.99962     1.93146    0.01029     2.94137
      C    5   -0.29541      0.99970     2.28895    0.00676     3.29541
      C    6   -0.29711      0.99969     2.29061    0.00681     3.29711
      C    7   -0.19119      0.99968     2.18405    0.00745     3.19119
      C    8   -0.19725      0.99969     2.18899    0.00856     3.19725
      H    9    0.10658      0.00000     0.39285    0.00056     0.39342
      H   10    0.11634      0.00000     0.38310    0.00055     0.38366
      H   11    0.11156      0.00000     0.38784    0.00060     0.38844
      H   12    0.10677      0.00000     0.39270    0.00053     0.39323
      H   13    0.10699      0.00000     0.39237    0.00064     0.39301
      H   14    0.10241      0.00000     0.39678    0.00081     0.39759
      H   15    0.10155      0.00000     0.39786    0.00059     0.39845
      H   16    0.11269      0.00000     0.38657    0.00074     0.38731
      C   17   -0.30302      0.99975     2.29811    0.00516     3.30302
      C   18   -0.30230      0.99975     2.29719    0.00537     3.30230
      C   19   -0.25782      0.99962     2.24925    0.00894     3.25782
      C   20    0.30190      0.99970     1.68289    0.01552     2.69810
      C   21   -0.26085      0.99962     2.25217    0.00906     3.26085
      H   22    0.10724      0.00000     0.39240    0.00036     0.39276
      H   23    0.11093      0.00000     0.38842    0.00065     0.38907
      H   24    0.09561      0.00000     0.40376    0.00063     0.40439
      H   25    0.10589      0.00000     0.39346    0.00065     0.39411
      H   26    0.10496      0.00000     0.39446    0.00059     0.39504
      H   27    0.10669      0.00000     0.39294    0.00037     0.39331
      H   28    0.11402      0.00000     0.38533    0.00065     0.38598
      H   29    0.11699      0.00000     0.38231    0.00070     0.38301
      H   30    0.11511      0.00000     0.38412    0.00078     0.38489
      H   31    0.11707      0.00000     0.38216    0.00077     0.38293
      O   32   -0.26221      0.99989     3.24827    0.01406     4.26221
      H   33    0.10342      0.00000     0.39616    0.00042     0.39658
      H   34    0.10918      0.00000     0.39039    0.00043     0.39082
 =======================================================================
   * Total *    0.50000     13.99599    39.85999    0.14402    54.00000

                      1                      2                      3
                      A                      A                      A
 Frequencies --     63.7254                75.8727                94.6277
 Red. masses --      2.3113                 3.6923                 3.4477
 Frc consts  --      0.0055                 0.0125                 0.0182
 IR Inten    --      0.9383                 3.8731                 3.4838

                      4                      5                      6
                      A                      A                      A
 Frequencies --    106.8238               125.9303               183.6272
 Red. masses --      2.4748                 1.6854                 2.1333
 Frc consts  --      0.0166                 0.0157                 0.0424
 IR Inten    --      0.5556                 0.4389                 1.0772

                      7                      8                      9
                      A                      A                      A
 Frequencies --    209.6903               219.3104               226.2240
 Red. masses --      1.9693                 2.0767                 1.6358
 Frc consts  --      0.0510                 0.0589                 0.0493
 IR Inten    --      1.6760                 1.2978                 0.3133

                     10                     11                     12
                      A                      A                      A
 Frequencies --    254.9988               262.1885               288.5622
 Red. masses --      1.6269                 1.6457                 1.3860
 Frc consts  --      0.0623                 0.0667                 0.0680
 IR Inten    --      0.1426                 0.9891                 0.1824

                     13                     14                     15
                      A                      A                      A
 Frequencies --    305.8336               312.2441               328.9772
 Red. masses --      2.4563                 2.0199                 2.2959
 Frc consts  --      0.1354                 0.1160                 0.1464
 IR Inten    --      0.2092                 0.5759                 0.0586

                     16                     17                     18
                      A                      A                      A
 Frequencies --    343.0854               380.1414               392.4524
 Red. masses --      2.9791                 3.1376                 3.2342
 Frc consts  --      0.2066                 0.2671                 0.2935
 IR Inten    --      0.4659                 1.3139                 5.7418

                     19                     20                     21
                      A                      A                      A
 Frequencies --    426.7053               444.1808               482.3989
 Red. masses --      2.2514                 3.2148                 3.1171
 Frc consts  --      0.2415                 0.3737                 0.4274
 IR Inten    --      1.1208                 7.1311                 1.7930

                     22                     23                     24
                      A                      A                      A
 Frequencies --    516.9847               523.8706               571.0681
 Red. masses --      3.3230                 2.8915                 3.7151
 Frc consts  --      0.5233                 0.4675                 0.7138
 IR Inten    --     14.9883                 7.6481                 4.9665

                     25                     26                     27
                      A                      A                      A
 Frequencies --    578.9001               624.8035               737.9950
 Red. masses --      3.1458                 4.1865                 2.1016
 Frc consts  --      0.6211                 0.9629                 0.6744
 IR Inten    --      0.3034                 0.6728                 2.4728

                     28                     29                     30
                      A                      A                      A
 Frequencies --    767.6670               786.7871               833.5622
 Red. masses --      1.8646                 1.2557                 1.8088
 Frc consts  --      0.6474                 0.4580                 0.7405
 IR Inten    --      1.8519                 3.1050                 8.1458

                     31                     32                     33
                      A                      A                      A
 Frequencies --    868.6059               878.6742               904.7122
 Red. masses --      2.6249                 2.0960                 2.4722
 Frc consts  --      1.1668                 0.9535                 1.1922
 IR Inten    --      2.5527                 0.3724                 1.9337

                     34                     35                     36
                      A                      A                      A
 Frequencies --    952.5265               957.6556               970.6367
 Red. masses --      1.8030                 1.5276                 1.8202
 Frc consts  --      0.9639                 0.8254                 1.0104
 IR Inten    --      2.2753                 0.6676                 2.6452

                     37                     38                     39
                      A                      A                      A
 Frequencies --   1003.1831              1013.9617              1032.2152
 Red. masses --      1.7068                 1.4957                 1.4847
 Frc consts  --      1.0121                 0.9060                 0.9320
 IR Inten    --      4.6478                 2.6750                 0.6476

                     40                     41                     42
                      A                      A                      A
 Frequencies --   1054.6347              1066.2533              1083.2422
 Red. masses --      1.5089                 2.1581                 1.8286
 Frc consts  --      0.9888                 1.4456                 1.2642
 IR Inten    --      2.7095                 0.3848                 2.1512

                     43                     44                     45
                      A                      A                      A
 Frequencies --   1096.8813              1115.9521              1161.1605
 Red. masses --      2.0961                 2.0701                 1.9907
 Frc consts  --      1.4859                 1.5189                 1.5814
 IR Inten    --      0.8083                 0.6874                 2.3400

                     46                     47                     48
                      A                      A                      A
 Frequencies --   1183.5409              1209.7551              1215.9195
 Red. masses --      2.6025                 1.9917                 2.6354
 Frc consts  --      2.1479                 1.7174                 2.2957
 IR Inten    --      0.6871                 4.7880                 5.1743

                     49                     50                     51
                      A                      A                      A
 Frequencies --   1240.1329              1255.8220              1275.0291
 Red. masses --      2.1685                 1.9334                 1.7597
 Frc consts  --      1.9650                 1.7965                 1.6855
 IR Inten    --     20.9838                 8.2014                23.4354

                     52                     53                     54
                      A                      A                      A
 Frequencies --   1295.4416              1311.5751              1323.8590
 Red. masses --      1.6164                 1.6097                 1.3809
 Frc consts  --      1.5982                 1.6315                 1.4259
 IR Inten    --      2.3462                20.0611                12.4597

                     55                     56                     57
                      A                      A                      A
 Frequencies --   1348.6094              1361.2400              1377.5932
 Red. masses --      1.9643                 1.7234                 1.4699
 Frc consts  --      2.1049                 1.8815                 1.6435
 IR Inten    --     31.8689                35.7051                 3.3692

                     58                     59                     60
                      A                      A                      A
 Frequencies --   1384.2247              1398.5871              1415.1999
 Red. masses --      1.4846                 1.2936                 1.2581
 Frc consts  --      1.6760                 1.4908                 1.4846
 IR Inten    --      6.0340                13.7594                 8.1104

                     61                     62                     63
                      A                      A                      A
 Frequencies --   1416.3333              1424.9577              1464.0348
 Red. masses --      1.2793                 1.2685                 1.1150
 Frc consts  --      1.5121                 1.5175                 1.4081
 IR Inten    --      6.0326                 5.9082                11.7068

                     64                     65                     66
                      A                      A                      A
 Frequencies --   1469.5406              1474.3591              1479.0036
 Red. masses --      1.6982                 1.0644                 1.5151
 Frc consts  --      2.1608                 1.3632                 1.9527
 IR Inten    --      1.3466                 0.2867                 1.0630

                     67                     68                     69
                      A                      A                      A
 Frequencies --   1480.3147              1487.7812              1490.5020
 Red. masses --      1.2064                 1.1067                 1.0625
 Frc consts  --      1.5575                 1.4433                 1.3907
 IR Inten    --      7.6621                 6.1821                 0.2855

                     70                     71                     72
                      A                      A                      A
 Frequencies --   1496.5381              1500.7284              1502.2553
 Red. masses --      1.0552                 1.0637                 1.0545
 Frc consts  --      1.3924                 1.4115                 1.4021
 IR Inten    --      4.8581                 4.7874                 8.7529

                     73                     74                     75
                      A                      A                      A
 Frequencies --   1509.1573              1510.9165              1512.5216
 Red. masses --      1.0603                 1.0994                 1.0763
 Frc consts  --      1.4229                 1.4787                 1.4507
 IR Inten    --     17.5177                 3.2241                10.6200

                     76                     77                     78
                      A                      A                      A
 Frequencies --   1855.0676              3058.1485              3065.4053
 Red. masses --     11.2343                 1.0620                 1.0624
 Frc consts  --     22.7779                 5.8518                 5.8817
 IR Inten    --    231.4849                 8.5435                 5.5337

                     79                     80                     81
                      A                      A                      A
 Frequencies --   3069.5305              3072.1631              3072.4257
 Red. masses --      1.0387                 1.0581                 1.0449
 Frc consts  --      5.7660                 5.8838                 5.8118
 IR Inten    --      6.5031                14.1167                29.0581

                     82                     83                     84
                      A                      A                      A
 Frequencies --   3074.1313              3081.7360              3088.8204
 Red. masses --      1.0396                 1.0382                 1.0583
 Frc consts  --      5.7882                 5.8093                 5.9490
 IR Inten    --      5.4710                21.6865                11.4542

                     85                     86                     87
                      A                      A                      A
 Frequencies --   3097.3421              3129.6948              3142.7632
 Red. masses --      1.0992                 1.0975                 1.1020
 Frc consts  --      6.2130                 6.3340                 6.4131
 IR Inten    --     17.1386                10.7663                 3.7428

                     88                     89                     90
                      A                      A                      A
 Frequencies --   3143.5123              3144.7078              3149.4772
 Red. masses --      1.0992                 1.1020                 1.1002
 Frc consts  --      6.3997                 6.4208                 6.4299
 IR Inten    --     14.9012                 5.0258                25.5967

                     91                     92                     93
                      A                      A                      A
 Frequencies --   3149.8689              3152.0797              3158.7013
 Red. masses --      1.0983                 1.1032                 1.1033
 Frc consts  --      6.4201                 6.4580                 6.4859
 IR Inten    --     17.4193                 5.2683                 6.2448

                     94                     95                     96
                      A                      A                      A
 Frequencies --   3159.9066              3166.5548              3175.8290
 Red. masses --      1.1022                 1.1007                 1.1010
 Frc consts  --      6.4842                 6.5028                 6.5428
 IR Inten    --     17.9273                15.8739                 6.3141

 - Thermochemistry -
 -------------------
 Temperature   298.150 Kelvin.  Pressure   1.00000 Atm.
 Atom     1 has atomic number  8 and mass  15.99491

 Molecular mass:   198.14940 amu.
 Principal axes and moments of inertia in atomic units:
                           1         2         3
     Eigenvalues --  2237.354782718.811333044.21168
           X            0.99012  -0.13992   0.00959
           Y            0.13962   0.98983   0.02722
           Z           -0.01330  -0.02561   0.99958
 This molecule is an asymmetric top.
 Rotational symmetry number  1.
 Warning -- assumption of classical behavior for rotation
           may cause significant error
 Rotational temperatures (Kelvin)      0.03871     0.03186     0.02845
 Rotational constants (GHZ):           0.80664     0.66380     0.59284
 Zero-point vibrational energy     793440.4 (Joules/Mol)
                                  189.63680 (Kcal/Mol)
 Warning -- explicit consideration of  25 degrees of freedom as
           vibrations may cause significant error
 Vibrational temperatures:     91.69   109.16   136.15   153.70   181.19
          (Kelvin)            264.20   301.70   315.54   325.49   366.89
                              377.23   415.18   440.03   449.25   473.32
                              493.62   546.94   564.65   613.93   639.08
                              694.06   743.83   753.73   821.64   832.91
                              898.95  1061.81  1104.50  1132.01  1199.31
                             1249.73  1264.22  1301.68  1370.47  1377.85
                             1396.53  1443.36  1458.86  1485.13  1517.38
                             1534.10  1558.54  1578.17  1605.61  1670.65
                             1702.85  1740.57  1749.44  1784.27  1806.85
                             1834.48  1863.85  1887.06  1904.74  1940.35
                             1958.52  1982.05  1991.59  2012.25  2036.16
                             2037.79  2050.20  2106.42  2114.34  2121.27
                             2127.96  2129.84  2140.59  2144.50  2153.18
                             2159.21  2161.41  2171.34  2173.87  2176.18
                             2669.03  4399.99  4410.43  4416.37  4420.16
                             4420.54  4422.99  4433.93  4444.12  4456.38
                             4502.93  4521.74  4522.81  4524.53  4531.40
                             4531.96  4535.14  4544.67  4546.40  4555.97
                             4569.31

 Zero-point correction=                           0.302205 (Hartree/Particle)
 Thermal correction to Energy=                    0.317418
 Thermal correction to Enthalpy=                  0.318362
 Thermal correction to Gibbs Free Energy=         0.260939
 Sum of electronic and zero-point Energies=           -636.009167
 Sum of electronic and thermal Energies=              -635.993954
 Sum of electronic and thermal Enthalpies=            -635.993010
 Sum of electronic and thermal Free Energies=         -636.050433

                     E (Thermal)             CV                S
                      KCal/Mol        Cal/Mol-Kelvin    Cal/Mol-Kelvin
 Total                  199.183             59.182            120.857
 Electronic               0.000              0.000              1.377
 Translational            0.889              2.981             41.756
 Rotational               0.889              2.981             31.294
 Vibrational            197.405             53.220             46.430
 Vibration     1          0.597              1.972              4.338
 Vibration     2          0.599              1.965              3.995
 Vibration     3          0.603              1.953              3.562
 Vibration     4          0.606              1.944              3.326
 Vibration     5          0.611              1.927              3.007
 Vibration     6          0.631              1.862              2.291
 Vibration     7          0.642              1.826              2.046
 Vibration     8          0.647              1.812              1.965
 Vibration     9          0.650              1.801              1.909
 Vibration    10          0.665              1.754              1.696
 Vibration    11          0.669              1.742              1.647
 Vibration    12          0.685              1.695              1.482
 Vibration    13          0.696              1.663              1.385
 Vibration    14          0.701              1.650              1.350
 Vibration    15          0.712              1.618              1.265
 Vibration    16          0.722              1.589              1.198
 Vibration    17          0.750              1.513              1.039
 Vibration    18          0.760              1.486              0.991
 Vibration    19          0.788              1.412              0.869
 Vibration    20          0.804              1.374              0.814
 Vibration    21          0.839              1.289              0.704
 Vibration    22          0.872              1.212              0.617
 Vibration    23          0.879              1.197              0.601
 Vibration    24          0.927              1.094              0.502
 Vibration    25          0.935              1.077              0.487

 Optimization completed.
    -- Stationary point found.

 1\1\GINC-BD23\Freq\UM062X\def2TZVP\C11H20N1O2(2)\MIYAO\09-Jan-2025\0\\
 #P Geom=AllCheck Guess=TCheck SCRF=Check GenChk UM062X/def2TZVP Freq\\
 data_set_3-catalyst-Mix_18_opt\\0,2\O,-0.7715987119,-1.8612357065,0.11
 54604946\N,-0.1609451785,-0.7800193816,-0.1393613977\C,1.3270976987,-0
 .8516134768,-0.1212532471\C,-0.9486155413,0.4721992923,0.0174402837\C,
 1.7371623097,-2.1210792356,-0.859305916\C,1.8236089653,-0.911042125,1.
 3251799479\C,-1.0864145289,0.8600965067,1.5077263997\C,-2.3382378928,0
 .2376675331,-0.5939162228\H,1.297017665,-2.1394014445,-1.85707574\H,1.

 Normal termination of Gaussian 16 at Thu Jan  9 20:06:59 2025.
