 Gaussian 16, Revision C.01,
 Gaussian 16:  ES64L-G16RevC.01  3-Jul-2019

 ----------------------------------
 #p M062X/DEF2TZVP opt freq pop=NBO
 ----------------------------------

 ------------------------------
 data_set_3-catalyst-Mix_14_opt
 ------------------------------
 Symbolic Z-matrix:
 Charge =  0 Multiplicity = 2

 SCF Done:  E(UM062X) =  -637.492875759     A.U. after   18 cycles
 SCF Done:  E(UM062X) =  -637.498396102     A.U. after   15 cycles
 SCF Done:  E(UM062X) =  -637.498569247     A.U. after   13 cycles
 SCF Done:  E(UM062X) =  -637.498407123     A.U. after   13 cycles
 SCF Done:  E(UM062X) =  -637.498763513     A.U. after   12 cycles
 SCF Done:  E(UM062X) =  -637.498780032     A.U. after   13 cycles
 SCF Done:  E(UM062X) =  -637.498788966     A.U. after   13 cycles
 SCF Done:  E(UM062X) =  -637.498790960     A.U. after    9 cycles
 SCF Done:  E(UM062X) =  -637.498791143     A.U. after    7 cycles
 Optimization completed.
    -- Stationary point found.

 1\1\GINC-BD21\FOpt\UM062X\def2TZVP\C11H22N1O2(2)\MIYAO\09-Jan-2025\0\\
 #p M062X/DEF2TZVP opt freq pop=NBO\\data_set_3-catalyst-Mix_14_opt\\0,
 2\O,-0.9807593029,0.1277012894,-1.8283245136\N,-1.0474693403,0.1927783
 511,-0.5615451518\C,-1.2735171572,-1.0966522224,0.1691222977\C,-0.4904
 376981,1.46180224,0.0045065701\C,-1.6882048938,-2.1389606504,-0.869656
 0742\C,-2.4141183919,-0.9761366259,1.1848696218\C,-0.8876946514,1.7022
 466269,1.4573542425\C,-1.1093045988,2.5907327258,-0.830356018\H,-1.898
 3903709,-3.0723612093,-0.3465256093\H,-0.9084063034,-2.3111203269,-1.6

 Normal termination of Gaussian 16 at Thu Jan  9 13:38:06 2025.

 --------------------------------------------------------------------
 #P Geom=AllCheck Guess=TCheck SCRF=Check GenChk UM062X/def2TZVP Freq
 --------------------------------------------------------------------

 Structure from the checkpoint file:  "outputs/data_set_3-catalyst-Mix_14_opt.chk"
 ------------------------------
 data_set_3-catalyst-Mix_14_opt
 ------------------------------
 Charge =  0 Multiplicity = 2

                         Standard orientation:
 ---------------------------------------------------------------------
 Center     Atomic      Atomic             Coordinates (Angstroms)
 Number     Number       Type             X           Y           Z
 ---------------------------------------------------------------------
      1          8           0       -0.977184    0.125620   -1.833704
      2          7           0       -1.047904    0.191616   -0.567190
      3          6           0       -1.274790   -1.097492    0.163786
      4          6           0       -0.494044    1.461702   -0.000409
      5          6           0       -1.685089   -2.141075   -0.875455
      6          6           0       -2.418677   -0.977450    1.175888
      7          6           0       -0.896083    1.702843    1.451007
      8          6           0       -1.111566    2.589289   -0.838079
      9          1           0       -1.895863   -3.074299   -0.352246
     10          1           0       -0.902812   -2.312945   -1.609967
     11          1           0       -2.578910   -1.823570   -1.410040
     12          1           0       -2.702895   -1.978837    1.502120
     13          1           0       -3.288925   -0.515512    0.707563
     14          1           0       -2.155667   -0.409364    2.063059
     15          1           0       -0.563438    0.932400    2.140306
     16          1           0       -1.977801    1.803711    1.539231
     17          1           0       -0.443063    2.643112    1.770123
     18          1           0       -2.198542    2.501445   -0.844003
     19          1           0       -0.757782    2.546689   -1.864844
     20          1           0       -0.839378    3.551364   -0.402804
     21          6           0        0.027728   -1.554254    0.845995
     22          6           0        1.948839    0.789019    0.793806
     23          6           0        1.042152    1.530687   -0.194419
     24          1           0       -0.146256   -2.566912    1.216242
     25          1           0        0.210717   -0.946985    1.733578
     26          1           0        1.508208    0.774002    1.792034
     27          1           0        2.873913    1.362773    0.909264
     28          1           0        1.263007    1.215444   -1.217298
     29          1           0        1.289426    2.593653   -0.142482
     30          6           0        1.239946   -1.516223   -0.093553
     31          6           0        2.371348   -0.627870    0.396645
     32          8           0        3.306882   -0.595324   -0.672779
     33          1           0        0.946407   -1.142555   -1.077390
     34          1           0        1.646331   -2.514327   -0.257448
     35          1           0        2.837856   -1.093188    1.276092
     36          1           0        4.074629   -0.084821   -0.400164
 ---------------------------------------------------------------------

 SCF Done:  E(UM062X) =  -637.498791143     A.U. after    1 cycles

 The electronic state is 2-A.
 Alpha  occ. eigenvalues --  -19.62070 -19.61463 -14.82841 -10.58718 -10.58664
 Alpha  occ. eigenvalues --  -10.58571 -10.53850 -10.53533 -10.53527 -10.53303
 Alpha  occ. eigenvalues --  -10.53026 -10.52465 -10.51972 -10.51856  -1.21984
 Alpha  occ. eigenvalues --   -1.14514  -0.96670  -0.93097  -0.89246  -0.83392
 Alpha  occ. eigenvalues --   -0.81684  -0.79094  -0.78018  -0.77021  -0.73058
 Alpha  occ. eigenvalues --   -0.67997  -0.65036  -0.59404  -0.59251  -0.57672
 Alpha  occ. eigenvalues --   -0.56317  -0.55676  -0.54272  -0.53740  -0.49980
 Alpha  occ. eigenvalues --   -0.49477  -0.48800  -0.48353  -0.47344  -0.46410
 Alpha  occ. eigenvalues --   -0.45714  -0.45489  -0.43742  -0.43490  -0.43016
 Alpha  occ. eigenvalues --   -0.42578  -0.42104  -0.41346  -0.39928  -0.38992
 Alpha  occ. eigenvalues --   -0.38581  -0.38384  -0.36883  -0.34367  -0.32700
 Alpha  occ. eigenvalues --   -0.25162
 Alpha virt. eigenvalues --    0.05159   0.06406   0.07779   0.08066   0.09145
 Alpha virt. eigenvalues --    0.10380   0.10979   0.11607   0.12040   0.12673
 Alpha virt. eigenvalues --    0.13201   0.13793   0.14556   0.15512   0.15898

  Beta  occ. eigenvalues --  -19.62070 -19.60388 -14.82043 -10.58753 -10.58695
  Beta  occ. eigenvalues --  -10.58570 -10.53810 -10.53532 -10.53529 -10.53271
  Beta  occ. eigenvalues --  -10.53000 -10.52467 -10.51958 -10.51856  -1.19042
  Beta  occ. eigenvalues --   -1.14513  -0.95533  -0.92937  -0.88889  -0.83310
  Beta  occ. eigenvalues --   -0.79843  -0.79026  -0.77940  -0.76765  -0.72962
  Beta  occ. eigenvalues --   -0.67501  -0.64883  -0.59105  -0.58462  -0.56575
  Beta  occ. eigenvalues --   -0.55913  -0.54155  -0.54012  -0.53214  -0.49794
  Beta  occ. eigenvalues --   -0.49124  -0.48314  -0.47486  -0.46556  -0.45652
  Beta  occ. eigenvalues --   -0.45612  -0.45045  -0.43542  -0.42846  -0.42567
  Beta  occ. eigenvalues --   -0.42276  -0.41391  -0.40668  -0.39713  -0.38532
  Beta  occ. eigenvalues --   -0.38258  -0.36974  -0.36098  -0.34329  -0.31036
  Beta virt. eigenvalues --    0.00042   0.05161   0.06419   0.07843   0.08096
  Beta virt. eigenvalues --    0.09260   0.10368   0.10984   0.11624   0.12059
  Beta virt. eigenvalues --    0.12749   0.13237   0.13836   0.14586   0.15542

 Mulliken charges and spin densities:
               1          2
     1  O   -0.387601   0.530568
     2  N    0.188497   0.463458
     3  C   -0.044592  -0.044778
     4  C    0.096367  -0.011682
     5  C   -0.402191  -0.004406
     6  C   -0.437883   0.023046
     7  C   -0.532416  -0.003228
     8  C   -0.428487  -0.006247
     9  H    0.136721  -0.001117
    10  H    0.168765   0.000074
    11  H    0.163939   0.000168
    12  H    0.152244   0.001603
    13  H    0.172951  -0.002914
    14  H    0.151303  -0.002613
    15  H    0.151633  -0.000539
    16  H    0.186080  -0.000963
    17  H    0.172380  -0.001171
    18  H    0.150929   0.000860
    19  H    0.179857   0.000256
    20  H    0.135645  -0.001548
    21  C   -0.308374   0.027851
    22  C   -0.356931  -0.003994
    23  C   -0.364688   0.035825
    24  H    0.165656   0.005705
    25  H    0.144753  -0.003085
    26  H    0.162262   0.000912
    27  H    0.157028   0.000170
    28  H    0.210213  -0.004244
    29  H    0.156531   0.000655
    30  C   -0.295358   0.009464
    31  C    0.027186  -0.003420
    32  O   -0.457050   0.000040
    33  H    0.196775  -0.004734
    34  H    0.152530  -0.000190
    35  H    0.130982   0.000229
    36  H    0.304347  -0.000010
 Sum of Mulliken charges =  -0.00000   1.00000

 Dipole moment (field-independent basis, Debye):
    X=              0.4495    Y=              0.7639    Z=              4.0003  Tot=              4.0973
 Quadrupole moment (field-independent basis, Debye-Ang):
   XX=            -84.6047   YY=            -85.4180   ZZ=            -95.5873
   XY=              4.3156   XZ=              1.1551   YZ=             -0.7522

  Exact polarizability:     144.685       2.719     143.054      -0.312      -0.024     128.346
 Approx polarizability:     164.558       2.927     166.442      -0.481      -0.049     173.862

 Summary of Natural Population Analysis:

                                       Natural Population
                Natural  -----------------------------------------------
    Atom  No    Charge         Core      Valence    Rydberg      Total
 -----------------------------------------------------------------------
      O    1    0.04598      0.99993     2.94875    0.00535     3.95402
      N    2    0.24393      0.99971     2.23603    0.02033     3.25607
      C    3    0.04619      0.99965     1.94567    0.00849     2.95381
      C    4    0.04249      0.99964     1.94830    0.00957     2.95751
      C    5   -0.29870      0.99970     2.29179    0.00720     3.29870
      C    6   -0.30024      0.99970     2.29428    0.00627     3.30024
      C    7   -0.31057      0.99970     2.30402    0.00685     3.31057
      C    8   -0.29166      0.99971     2.28517    0.00678     3.29166
      H    9    0.09912      0.00000     0.40043    0.00046     0.40088
      H   10    0.11328      0.00000     0.38622    0.00050     0.38672
      H   11    0.11118      0.00000     0.38828    0.00054     0.38882
      H   12    0.10682      0.00000     0.39271    0.00047     0.39318
      H   13    0.10834      0.00000     0.39116    0.00050     0.39166
      H   14    0.10390      0.00000     0.39560    0.00051     0.39610
      H   15    0.10172      0.00000     0.39763    0.00065     0.39828
      H   16    0.10887      0.00000     0.39061    0.00053     0.39113
      H   17    0.10848      0.00000     0.39105    0.00047     0.39152
      H   18    0.10528      0.00000     0.39417    0.00055     0.39472
      H   19    0.11622      0.00000     0.38327    0.00052     0.38378
      H   20    0.09903      0.00000     0.40049    0.00048     0.40097
      C   21   -0.19875      0.99966     2.19138    0.00771     3.19875
      C   22   -0.21383      0.99970     2.20666    0.00747     3.21383
      C   23   -0.19901      0.99967     2.19073    0.00861     3.19901
      H   24    0.11101      0.00000     0.38846    0.00053     0.38899
      H   25    0.09944      0.00000     0.39973    0.00083     0.40056
      H   26    0.10154      0.00000     0.39778    0.00068     0.39846
      H   27    0.10296      0.00000     0.39641    0.00063     0.39704
      H   28    0.11826      0.00000     0.38090    0.00084     0.38174
      H   29    0.10573      0.00000     0.39365    0.00061     0.39427
      C   30   -0.21837      0.99970     2.20996    0.00871     3.21837
      C   31    0.05702      0.99962     1.93392    0.00944     2.94298
      O   32   -0.35590      0.99991     3.34981    0.00618     4.35590
      H   33    0.11518      0.00000     0.38389    0.00093     0.38482
      H   34    0.11031      0.00000     0.38919    0.00050     0.38969
      H   35    0.07553      0.00000     0.42368    0.00079     0.42447
      H   36    0.22924      0.00000     0.26878    0.00199     0.27076
 =======================================================================
   * Total *    0.50000     13.99601    40.87053    0.13347    55.00000

                      1                      2                      3
                      A                      A                      A
 Frequencies --     86.7553               116.5396               121.4759
 Red. masses --      5.7934                 3.0687                 3.8427
 Frc consts  --      0.0257                 0.0246                 0.0334
 IR Inten    --      1.2896                 0.5455                 4.7665

                      4                      5                      6
                      A                      A                      A
 Frequencies --    180.3707               194.1094               214.4869
 Red. masses --      1.3849                 2.6017                 3.3497
 Frc consts  --      0.0265                 0.0578                 0.0908
 IR Inten    --      0.5149                 0.0190                 0.5422

                      7                      8                      9
                      A                      A                      A
 Frequencies --    243.9191               258.3914               273.1241
 Red. masses --      1.7850                 2.4319                 1.3515
 Frc consts  --      0.0626                 0.0957                 0.0594
 IR Inten    --      0.2901                 0.4117                 1.9699

                     10                     11                     12
                      A                      A                      A
 Frequencies --    281.0277               299.2849               304.1613
 Red. masses --      2.2444                 1.7422                 1.5091
 Frc consts  --      0.1044                 0.0919                 0.0823
 IR Inten    --      2.0156                38.6537                15.0835

                     13                     14                     15
                      A                      A                      A
 Frequencies --    305.2261               323.0071               352.2396
 Red. masses --      1.1676                 2.3391                 2.6863
 Frc consts  --      0.0641                 0.1438                 0.1964
 IR Inten    --     66.9838                 2.1264                 0.2031

                     16                     17                     18
                      A                      A                      A
 Frequencies --    369.8631               384.8547               403.0864
 Red. masses --      1.5595                 1.9748                 2.3230
 Frc consts  --      0.1257                 0.1723                 0.2224
 IR Inten    --      0.6779                 4.5181                 0.1780

                     19                     20                     21
                      A                      A                      A
 Frequencies --    424.5745               447.3160               463.3513
 Red. masses --      1.8719                 3.0888                 2.0087
 Frc consts  --      0.1988                 0.3641                 0.2541
 IR Inten    --      0.1142                 8.1956                 1.9548

                     22                     23                     24
                      A                      A                      A
 Frequencies --    480.3546               508.3683               539.6758
 Red. masses --      2.4189                 2.9344                 2.6380
 Frc consts  --      0.3289                 0.4468                 0.4527
 IR Inten    --      5.4785                10.8679                 0.9270

                     25                     26                     27
                      A                      A                      A
 Frequencies --    555.0092               584.8423               613.2886
 Red. masses --      3.1936                 3.1597                 2.9658
 Frc consts  --      0.5796                 0.6368                 0.6572
 IR Inten    --     11.3662                 1.1288                 1.3757

                     28                     29                     30
                      A                      A                      A
 Frequencies --    652.1329               778.5352               783.7695
 Red. masses --      3.6143                 2.1044                 2.4904
 Frc consts  --      0.9056                 0.7515                 0.9014
 IR Inten    --      2.2985                 0.3120                 2.6166

                     31                     32                     33
                      A                      A                      A
 Frequencies --    852.4465               867.4407               895.7948
 Red. masses --      2.4398                 1.9727                 1.9462
 Frc consts  --      1.0446                 0.8746                 0.9202
 IR Inten    --      2.9393                 6.6958                 1.2241

                     34                     35                     36
                      A                      A                      A
 Frequencies --    937.3119               954.6721               964.1414
 Red. masses --      1.9441                 1.4538                 1.3734
 Frc consts  --      1.0063                 0.7807                 0.7522
 IR Inten    --      0.3786                 1.0713                 1.0009

                     37                     38                     39
                      A                      A                      A
 Frequencies --    970.4914               985.2482              1011.6382
 Red. masses --      1.8180                 1.8279                 1.6799
 Frc consts  --      1.0089                 1.0454                 1.0129
 IR Inten    --      1.5847                 5.1309                 2.4004

                     40                     41                     42
                      A                      A                      A
 Frequencies --   1016.7156              1035.3481              1051.0143
 Red. masses --      1.5319                 1.5964                 2.1199
 Frc consts  --      0.9330                 1.0082                 1.3797
 IR Inten    --      0.3047                 3.3358                25.6831

                     43                     44                     45
                      A                      A                      A
 Frequencies --   1072.8074              1083.5804              1103.2283
 Red. masses --      2.1708                 1.9750                 2.3580
 Frc consts  --      1.4720                 1.3663                 1.6909
 IR Inten    --     21.7742                 4.8654                47.9153

                     46                     47                     48
                      A                      A                      A
 Frequencies --   1134.4049              1168.4666              1175.9964
 Red. masses --      1.9838                 1.6148                 1.5791
 Frc consts  --      1.5041                 1.2990                 1.2867
 IR Inten    --      4.3699                29.0490                 4.6386

                     49                     50                     51
                      A                      A                      A
 Frequencies --   1200.9390              1204.5894              1227.3580
 Red. masses --      1.6459                 2.1894                 1.7316
 Frc consts  --      1.3986                 1.8717                 1.5369
 IR Inten    --     20.6517                 8.9346                 1.8770

                     52                     53                     54
                      A                      A                      A
 Frequencies --   1231.0278              1249.8310              1277.3442
 Red. masses --      1.7889                 2.2026                 2.0684
 Frc consts  --      1.5972                 2.0272                 1.9884
 IR Inten    --     10.7091                13.2581                28.1755

                     55                     56                     57
                      A                      A                      A
 Frequencies --   1294.0932              1308.6629              1323.4980
 Red. masses --      1.8774                 1.4607                 1.2803
 Frc consts  --      1.8524                 1.4739                 1.3213
 IR Inten    --      9.5623                 1.2639                15.8801

                     58                     59                     60
                      A                      A                      A
 Frequencies --   1332.5054              1372.5288              1385.0563
 Red. masses --      1.3880                 1.3628                 1.3706
 Frc consts  --      1.4520                 1.5126                 1.5492
 IR Inten    --     15.0397                 0.5594                 1.8566

                     61                     62                     63
                      A                      A                      A
 Frequencies --   1392.4143              1399.4200              1405.3037
 Red. masses --      1.5935                 1.2920                 1.2932
 Frc consts  --      1.8202                 1.4908                 1.5047
 IR Inten    --     10.5502                 9.6396                11.6808

                     64                     65                     66
                      A                      A                      A
 Frequencies --   1411.6903              1423.3040              1424.3585
 Red. masses --      1.3561                 1.2974                 1.3025
 Frc consts  --      1.5923                 1.5485                 1.5570
 IR Inten    --     14.8126                11.0665                15.4833

                     67                     68                     69
                      A                      A                      A
 Frequencies --   1447.4837              1461.0275              1477.4858
 Red. masses --      1.5982                 4.3335                 1.0665
 Frc consts  --      1.9729                 5.4501                 1.3718
 IR Inten    --      8.6599                 1.1324                 0.9844

                     70                     71                     72
                      A                      A                      A
 Frequencies --   1479.5688              1483.4200              1487.1012
 Red. masses --      1.0620                 1.0736                 1.1179
 Frc consts  --      1.3698                 1.3919                 1.4566
 IR Inten    --      1.0001                 7.8957                 1.2822

                     73                     74                     75
                      A                      A                      A
 Frequencies --   1488.7384              1494.7753              1498.8835
 Red. masses --      1.0892                 1.0599                 1.0593
 Frc consts  --      1.4223                 1.3954                 1.4022
 IR Inten    --      6.4308                 2.2067                 3.5152

                     76                     77                     78
                      A                      A                      A
 Frequencies --   1505.6095              1514.1726              1517.0854
 Red. masses --      1.0671                 1.0834                 1.0616
 Frc consts  --      1.4252                 1.4636                 1.4396
 IR Inten    --      2.1672                 3.6523                 7.7319

                     79                     80                     81
                      A                      A                      A
 Frequencies --   1520.4467              1539.1373              3003.9726
 Red. masses --      1.0747                 1.0580                 1.0836
 Frc consts  --      1.4639                 1.4766                 5.7613
 IR Inten    --     23.5346                 3.7246                46.3909

                     82                     83                     84
                      A                      A                      A
 Frequencies --   3051.5239              3069.3672              3072.9872
 Red. masses --      1.0722                 1.0596                 1.0387
 Frc consts  --      5.8823                 5.8816                 5.7790
 IR Inten    --     31.7204                16.8973                 9.6704

                     85                     86                     87
                      A                      A                      A
 Frequencies --   3074.4796              3077.6052              3079.8129
 Red. masses --      1.0402                 1.0532                 1.0461
 Frc consts  --      5.7931                 5.8777                 5.8463
 IR Inten    --      9.0537                11.7941                29.8931

                     88                     89                     90
                      A                      A                      A
 Frequencies --   3083.5446              3086.0609              3105.8837
 Red. masses --      1.0527                 1.0536                 1.0963
 Frc consts  --      5.8974                 5.9121                 6.2310
 IR Inten    --     17.5608                11.5435                16.5482

                     91                     92                     93
                      A                      A                      A
 Frequencies --   3112.9308              3121.8271              3128.8652
 Red. masses --      1.0993                 1.0939                 1.1023
 Frc consts  --      6.2761                 6.2810                 6.3581
 IR Inten    --      3.2295                24.3502                21.5802

                     94                     95                     96
                      A                      A                      A
 Frequencies --   3137.9420              3139.9602              3147.6459
 Red. masses --      1.1021                 1.1015                 1.1023
 Frc consts  --      6.3936                 6.3988                 6.4346
 IR Inten    --     12.4349                 2.5892                33.4088

                     97                     98                     99
                      A                      A                      A
 Frequencies --   3156.9493              3179.2105              3179.8579
 Red. masses --      1.1017                 1.1009                 1.1010
 Frc consts  --      6.4692                 6.5559                 6.5592
 IR Inten    --     17.3030                 3.6122                11.6949

                    100                    101                    102
                      A                      A                      A
 Frequencies --   3182.5319              3194.3905              3872.7410
 Red. masses --      1.0982                 1.0941                 1.0663
 Frc consts  --      6.5536                 6.5781                 9.4223
 IR Inten    --     12.8257                20.5649                32.0407

 - Thermochemistry -
 -------------------
 Temperature   298.150 Kelvin.  Pressure   1.00000 Atm.
 Atom     1 has atomic number  8 and mass  15.99491

 Molecular mass:   200.16505 amu.
 Principal axes and moments of inertia in atomic units:
                           1         2         3
     Eigenvalues --  2123.612192756.046533571.45273
           X            0.99936   0.03539  -0.00560
           Y           -0.03537   0.99937   0.00392
           Z            0.00573  -0.00372   0.99998
 This molecule is an asymmetric top.
 Rotational symmetry number  1.
 Warning -- assumption of classical behavior for rotation
           may cause significant error
 Rotational temperatures (Kelvin)      0.04079     0.03143     0.02425
 Rotational constants (GHZ):           0.84985     0.65483     0.50532
 Zero-point vibrational energy     860490.9 (Joules/Mol)
                                  205.66225 (Kcal/Mol)
 Warning -- explicit consideration of  27 degrees of freedom as
           vibrations may cause significant error
 Vibrational temperatures:    124.82   167.67   174.78   259.51   279.28
          (Kelvin)            308.60   350.95   371.77   392.96   404.34
                              430.60   437.62   439.15   464.74   506.79
                              532.15   553.72   579.95   610.87   643.59
                              666.66   691.12   731.43   776.47   798.53
                              841.46   882.39   938.27  1120.14  1127.67
                             1226.48  1248.05  1288.85  1348.58  1373.56
                             1387.18  1396.32  1417.55  1455.52  1462.83
                             1489.63  1512.18  1543.53  1559.03  1587.30
                             1632.16  1681.16  1692.00  1727.88  1733.14
                             1765.89  1771.17  1798.23  1837.81  1861.91
                             1882.87  1904.22  1917.18  1974.76  1992.79
                             2003.37  2013.45  2021.92  2031.11  2047.82
                             2049.33  2082.61  2102.09  2125.77  2128.77
                             2134.31  2139.61  2141.96  2150.65  2156.56
                             2166.24  2178.56  2182.75  2187.58  2214.48
                             4322.05  4390.46  4416.13  4421.34  4423.49
                             4427.99  4431.16  4436.53  4440.15  4468.67
                             4478.81  4491.61  4501.74  4514.80  4517.70
                             4528.76  4542.15  4574.17  4575.11  4578.95
                             4596.02  5572.01

 Zero-point correction=                           0.327744 (Hartree/Particle)
 Thermal correction to Energy=                    0.342468
 Thermal correction to Enthalpy=                  0.343412
 Thermal correction to Gibbs Free Energy=         0.288179
 Sum of electronic and zero-point Energies=           -637.171047
 Sum of electronic and thermal Energies=              -637.156323
 Sum of electronic and thermal Enthalpies=            -637.155379
 Sum of electronic and thermal Free Energies=         -637.210612

                     E (Thermal)             CV                S
                      KCal/Mol        Cal/Mol-Kelvin    Cal/Mol-Kelvin
 Total                  214.902             60.550            116.248
 Electronic               0.000              0.000              1.377
 Translational            0.889              2.981             41.787
 Rotational               0.889              2.981             31.414
 Vibrational            213.125             54.588             41.670
 Vibration     1          0.601              1.958              3.732
 Vibration     2          0.608              1.936              3.157
 Vibration     3          0.609              1.931              3.077
 Vibration     4          0.629              1.866              2.325
 Vibration     5          0.635              1.848              2.188
 Vibration     6          0.644              1.819              2.005
 Vibration     7          0.659              1.773              1.774
 Vibration     8          0.667              1.749              1.673
 Vibration     9          0.676              1.723              1.576
 Vibration    10          0.681              1.709              1.527
 Vibration    11          0.692              1.675              1.421
 Vibration    12          0.695              1.666              1.394
 Vibration    13          0.696              1.664              1.388
 Vibration    14          0.708              1.629              1.295
 Vibration    15          0.729              1.571              1.156
 Vibration    16          0.742              1.534              1.080
 Vibration    17          0.754              1.503              1.020
 Vibration    18          0.768              1.463              0.951
 Vibration    19          0.787              1.417              0.877
 Vibration    20          0.806              1.367              0.804
 Vibration    21          0.821              1.331              0.756
 Vibration    22          0.837              1.294              0.709
 Vibration    23          0.864              1.231              0.638
 Vibration    24          0.895              1.162              0.566
 Vibration    25          0.910              1.129              0.534
 Vibration    26          0.942              1.064              0.476
 Vibration    27          0.973              1.004              0.427

 Optimization completed.
    -- Stationary point found.

 1\1\GINC-BD21\Freq\UM062X\def2TZVP\C11H22N1O2(2)\MIYAO\09-Jan-2025\0\\
 #P Geom=AllCheck Guess=TCheck SCRF=Check GenChk UM062X/def2TZVP Freq\\
 data_set_3-catalyst-Mix_14_opt\\0,2\O,-0.9807593029,0.1277012894,-1.82
 83245136\N,-1.0474693403,0.1927783511,-0.5615451518\C,-1.2735171572,-1
 .0966522224,0.1691222977\C,-0.4904376981,1.46180224,0.0045065701\C,-1.
 6882048938,-2.1389606504,-0.8696560742\C,-2.4141183919,-0.9761366259,1
 .1848696218\C,-0.8876946514,1.7022466269,1.4573542425\C,-1.1093045988,
 2.5907327258,-0.830356018\H,-1.8983903709,-3.0723612093,-0.3465256093\

 Normal termination of Gaussian 16 at Thu Jan  9 15:45:17 2025.
