 Gaussian 16, Revision C.01,
 Gaussian 16:  ES64L-G16RevC.01  3-Jul-2019

 ----------------------------------
 #p M062X/DEF2TZVP opt freq pop=NBO
 ----------------------------------

 -----------------------------
 data_set_3-catalyst-Mix_1_opt
 -----------------------------
 Symbolic Z-matrix:
 Charge =  0 Multiplicity = 2

 SCF Done:  E(UM062X) =  -860.797882748     A.U. after   20 cycles
 SCF Done:  E(UM062X) =  -860.809641553     A.U. after   16 cycles
 SCF Done:  E(UM062X) =  -860.810100181     A.U. after   14 cycles
 SCF Done:  E(UM062X) =  -860.808879828     A.U. after   15 cycles
 SCF Done:  E(UM062X) =  -860.810292573     A.U. after   13 cycles
 SCF Done:  E(UM062X) =  -860.810297024     A.U. after    9 cycles
 SCF Done:  E(UM062X) =  -860.810297630     A.U. after   11 cycles
 SCF Done:  E(UM062X) =  -860.810297871     A.U. after   10 cycles
 Optimization completed.
    -- Stationary point found.

 1\1\GINC-BD23\FOpt\UM062X\def2TZVP\C11H18N1O5(2)\MIYAO\09-Jan-2025\0\\
 #p M062X/DEF2TZVP opt freq pop=NBO\\data_set_3-catalyst-Mix_1_opt\\0,2
 \O,0.0003629028,-1.4510280352,-0.0000891358\N,0.0001923395,-0.18630330
 06,-0.0000171156\C,-1.2453468156,0.5170219489,-0.3482026719\C,-1.24505
 93682,1.8942109716,0.3210196202\C,-0.0001601667,2.7336807351,0.0000783
 915\C,1.2449398278,1.8945304886,-0.3209156564\C,1.2455535032,0.5173057
 877,0.3482307241\C,1.3947620264,0.5869144905,1.8650740687\C,2.34974070
 56,-0.3226960901,-0.3221966767\O,2.4829734974,-0.3936427829,-1.5109795

 Normal termination of Gaussian 16 at Thu Jan  9 21:34:09 2025.

 --------------------------------------------------------------------
 #P Geom=AllCheck Guess=TCheck SCRF=Check GenChk UM062X/def2TZVP Freq
 --------------------------------------------------------------------

 Structure from the checkpoint file:  "outputs/data_set_3-catalyst-Mix_1_opt.chk"
 -----------------------------
 data_set_3-catalyst-Mix_1_opt
 -----------------------------
 Charge =  0 Multiplicity = 2

                         Standard orientation:
 ---------------------------------------------------------------------
 Center     Atomic      Atomic             Coordinates (Angstroms)
 Number     Number       Type             X           Y           Z
 ---------------------------------------------------------------------
      1          8           0       -0.000266    1.449520    0.000024
      2          7           0       -0.000128    0.184796   -0.000006
      3          6           0        1.245973   -0.518534   -0.346167
      4          6           0        1.244532   -1.895777    0.322943
      5          6           0        0.000149   -2.735188   -0.000145
      6          6           0       -1.244391   -1.895980   -0.323152
      7          6           0       -1.246088   -0.518809    0.346104
      8          6           0       -1.397832   -0.588536    1.862690
      9          6           0       -2.349131    0.321275   -0.326100
     10          8           0       -2.480376    0.392321   -1.515098
     11          8           0       -3.142234    0.936175    0.546259
     12          6           0       -4.142748    1.773195   -0.033296
     13          1           0        1.325320   -1.729549    1.396019
     14          1           0        2.149604   -2.424286    0.018287
     15          1           0       -0.197027   -3.389743    0.849438
     16          1           0        0.197448   -3.389621   -0.849793
     17          1           0       -2.149365   -2.424691   -0.018551
     18          1           0       -1.325210   -1.729656   -1.396210
     19          1           0       -1.298538    0.406183    2.292370
     20          1           0       -0.628754   -1.232293    2.287356
     21          1           0       -2.376904   -0.988604    2.125074
     22          1           0       -4.804182    1.186131   -0.668591
     23          1           0       -3.671935    2.551780   -0.631072
     24          1           0       -4.689135    2.203391    0.800055
     25          6           0        1.397762   -0.588069   -1.862757
     26          6           0        2.348840    0.321689    0.326150
     27          8           0        2.480529    0.391992    1.515143
     28          8           0        3.142174    0.936394   -0.546135
     29          6           0        4.143031    1.772932    0.033524
     30          1           0        2.376924   -0.987903   -2.125164
     31          1           0        1.298267    0.406674   -2.292334
     32          1           0        0.628829   -1.231944   -2.287507
     33          1           0        3.672538    2.551579    0.631469
     34          1           0        4.689538    2.203076   -0.799776
     35          1           0        4.804280    1.185502    0.668675
 ---------------------------------------------------------------------

 SCF Done:  E(UM062X) =  -860.810297871     A.U. after    1 cycles

 The electronic state is 2-A.
 Alpha  occ. eigenvalues --  -19.67723 -19.67723 -19.63396 -19.61685 -19.61684
 Alpha  occ. eigenvalues --  -14.84519 -10.67308 -10.67307 -10.60400 -10.60399
 Alpha  occ. eigenvalues --  -10.59087 -10.59086 -10.54949 -10.54913 -10.54895
 Alpha  occ. eigenvalues --  -10.53321 -10.53321  -1.25278  -1.24557  -1.23344
 Alpha  occ. eigenvalues --   -1.14847  -1.14798  -0.99686  -0.93199  -0.88066
 Alpha  occ. eigenvalues --   -0.84261  -0.82690  -0.80208  -0.80062  -0.74358
 Alpha  occ. eigenvalues --   -0.73033  -0.67498  -0.65693  -0.62539  -0.61690
 Alpha  occ. eigenvalues --   -0.59585  -0.59205  -0.57354  -0.57252  -0.56557
 Alpha  occ. eigenvalues --   -0.56285  -0.54581  -0.54003  -0.52514  -0.51101
 Alpha  occ. eigenvalues --   -0.49585  -0.48559  -0.47905  -0.47570  -0.47143
 Alpha  occ. eigenvalues --   -0.46737  -0.45673  -0.45273  -0.44534  -0.43876
 Alpha  occ. eigenvalues --   -0.43773  -0.42301  -0.41601  -0.39945  -0.39070
 Alpha  occ. eigenvalues --   -0.38046  -0.37958  -0.35601  -0.35502  -0.34545
 Alpha  occ. eigenvalues --   -0.26532
 Alpha virt. eigenvalues --    0.03370   0.05111   0.05714   0.07760   0.08424
 Alpha virt. eigenvalues --    0.08439   0.10108   0.10707   0.10760   0.11516
 Alpha virt. eigenvalues --    0.13317   0.13406   0.13625   0.14473   0.14754

  Beta  occ. eigenvalues --  -19.67722 -19.67722 -19.62295 -19.61691 -19.61691
  Beta  occ. eigenvalues --  -14.83706 -10.67289 -10.67289 -10.60443 -10.60442
  Beta  occ. eigenvalues --  -10.59087 -10.59086 -10.54948 -10.54905 -10.54890
  Beta  occ. eigenvalues --  -10.53283 -10.53283  -1.24772  -1.24546  -1.20861
  Beta  occ. eigenvalues --   -1.14850  -1.14778  -0.98359  -0.93008  -0.87377
  Beta  occ. eigenvalues --   -0.83596  -0.82671  -0.79861  -0.79569  -0.73991
  Beta  occ. eigenvalues --   -0.72538  -0.67436  -0.65546  -0.62481  -0.60884
  Beta  occ. eigenvalues --   -0.58858  -0.58113  -0.57218  -0.56844  -0.56551
  Beta  occ. eigenvalues --   -0.56129  -0.53706  -0.52827  -0.51096  -0.50664
  Beta  occ. eigenvalues --   -0.49192  -0.48469  -0.47679  -0.47235  -0.46973
  Beta  occ. eigenvalues --   -0.46718  -0.45356  -0.44482  -0.43868  -0.43788
  Beta  occ. eigenvalues --   -0.42199  -0.42184  -0.40566  -0.39826  -0.38061
  Beta  occ. eigenvalues --   -0.38048  -0.37414  -0.35583  -0.35103  -0.33000
  Beta virt. eigenvalues --   -0.01078   0.03543   0.05124   0.05842   0.07766
  Beta virt. eigenvalues --    0.08425   0.08460   0.10113   0.10746   0.10768
  Beta virt. eigenvalues --    0.11656   0.13361   0.13412   0.13607   0.14546

 Mulliken charges and spin densities:
               1          2
     1  O   -0.374281   0.539417
     2  N    0.199540   0.442797
     3  C    0.066877  -0.000911
     4  C   -0.394871   0.000248
     5  C   -0.304865  -0.006915
     6  C   -0.394894   0.000255
     7  C    0.066872  -0.000931
     8  C   -0.427818   0.021933
     9  C    0.342957  -0.006353
    10  O   -0.333094  -0.002675
    11  O   -0.242913   0.000967
    12  C   -0.265570   0.001219
    13  H    0.213848  -0.001232
    14  H    0.166580   0.000404
    15  H    0.171514   0.000135
    16  H    0.171511   0.000135
    17  H    0.166585   0.000405
    18  H    0.213836  -0.001233
    19  H    0.182671  -0.003188
    20  H    0.149926  -0.001089
    21  H    0.153923   0.002994
    22  H    0.149381  -0.000007
    23  H    0.161457  -0.000090
    24  H    0.144968   0.000009
    25  C   -0.427816   0.021935
    26  C    0.342958  -0.006374
    27  O   -0.333120  -0.002674
    28  O   -0.242910   0.000966
    29  C   -0.265581   0.001219
    30  H    0.153924   0.002994
    31  H    0.182676  -0.003188
    32  H    0.149924  -0.001088
    33  H    0.161447  -0.000089
    34  H    0.144971   0.000009
    35  H    0.149387  -0.000007
 Sum of Mulliken charges =  -0.00000   1.00000

 Dipole moment (field-independent basis, Debye):
    X=              0.0002    Y=             -2.2586    Z=             -0.0001  Tot=              2.2586
 Quadrupole moment (field-independent basis, Debye-Ang):
   XX=            -84.8793   YY=            -94.8408   ZZ=           -108.6152
   XY=              0.0018   XZ=             -8.4480   YZ=              0.0016

  Exact polarizability:     162.291      -0.001     143.252      -4.460      -0.001     131.428
 Approx polarizability:     169.393      -0.001     171.970      -4.082      -0.005     176.669

 Summary of Natural Population Analysis:

                                       Natural Population
                Natural  -----------------------------------------------
    Atom  No    Charge         Core      Valence    Rydberg      Total
 -----------------------------------------------------------------------
      O    1    0.06153      0.99993     2.93316    0.00538     3.93847
      N    2    0.25829      0.99971     2.22232    0.01968     3.24171
      C    3   -0.01123      0.99957     2.00067    0.01099     3.01123
      C    4   -0.20215      0.99969     2.19528    0.00718     3.20215
      C    5   -0.20438      0.99972     2.19806    0.00659     3.20438
      C    6   -0.20215      0.99969     2.19528    0.00718     3.20215
      C    7   -0.01124      0.99957     2.00067    0.01099     3.01124
      C    8   -0.29134      0.99971     2.28525    0.00639     3.29134
      C    9    0.41358      0.99969     1.56800    0.01872     2.58642
      O   10   -0.29921      0.99987     3.28448    0.01485     4.29921
      O   11   -0.24487      0.99986     3.23210    0.01291     4.24487
      C   12   -0.12774      0.99965     2.12125    0.00685     3.12774
      H   13    0.11633      0.00000     0.38303    0.00064     0.38367
      H   14    0.11093      0.00000     0.38855    0.00052     0.38907
      H   15    0.10727      0.00000     0.39220    0.00053     0.39273
      H   16    0.10727      0.00000     0.39220    0.00053     0.39273
      H   17    0.11092      0.00000     0.38855    0.00052     0.38908
      H   18    0.11632      0.00000     0.38304    0.00064     0.38368
      H   19    0.11862      0.00000     0.38090    0.00047     0.38138
      H   20    0.10491      0.00000     0.39452    0.00057     0.39509
      H   21    0.10988      0.00000     0.38967    0.00045     0.39012
      H   22    0.09403      0.00000     0.40518    0.00079     0.40597
      H   23    0.09776      0.00000     0.40145    0.00078     0.40224
      H   24    0.09553      0.00000     0.40391    0.00056     0.40447
      C   25   -0.29134      0.99971     2.28525    0.00639     3.29134
      C   26    0.41359      0.99969     1.56799    0.01872     2.58641
      O   27   -0.29922      0.99987     3.28450    0.01485     4.29922
      O   28   -0.24487      0.99986     3.23210    0.01291     4.24487
      C   29   -0.12774      0.99965     2.12125    0.00685     3.12774
      H   30    0.10988      0.00000     0.38967    0.00045     0.39012
      H   31    0.11862      0.00000     0.38090    0.00047     0.38138
      H   32    0.10491      0.00000     0.39452    0.00057     0.39509
      H   33    0.09776      0.00000     0.40146    0.00078     0.40224
      H   34    0.09553      0.00000     0.40391    0.00056     0.40447
      H   35    0.09403      0.00000     0.40518    0.00079     0.40597
 =======================================================================
   * Total *    0.50000     16.99546    47.80646    0.19808    65.00000

                      1                      2                      3
                      A                      A                      A
 Frequencies --     29.7010                36.1038                58.7715
 Red. masses --      6.7072                 4.2331                 4.3561
 Frc consts  --      0.0035                 0.0033                 0.0089
 IR Inten    --      4.6934                 2.2275                 1.3618

                      4                      5                      6
                      A                      A                      A
 Frequencies --     99.1594               117.5901               130.9974
 Red. masses --      4.2277                 3.3176                 4.9575
 Frc consts  --      0.0245                 0.0270                 0.0501
 IR Inten    --      0.6763                 0.3286                 1.7026

                      7                      8                      9
                      A                      A                      A
 Frequencies --    145.4630               150.5581               173.3379
 Red. masses --      2.1887                 2.2209                 1.1786
 Frc consts  --      0.0273                 0.0297                 0.0209
 IR Inten    --      1.4949                 1.0774                 0.6831

                     10                     11                     12
                      A                      A                      A
 Frequencies --    178.6455               203.3459               225.1034
 Red. masses --      1.2719                 3.5841                 2.8184
 Frc consts  --      0.0239                 0.0873                 0.0841
 IR Inten    --      0.3173                 3.8759                 4.9025

                     13                     14                     15
                      A                      A                      A
 Frequencies --    236.4904               250.0485               256.5973
 Red. masses --      3.3603                 1.2932                 1.1274
 Frc consts  --      0.1107                 0.0476                 0.0437
 IR Inten    --      0.0150                 0.5309                 0.2160

                     16                     17                     18
                      A                      A                      A
 Frequencies --    270.6882               280.8791               307.8824
 Red. masses --      3.5351                 3.8631                 4.9577
 Frc consts  --      0.1526                 0.1796                 0.2769
 IR Inten    --      0.5736                 1.5295                 1.8368

                     19                     20                     21
                      A                      A                      A
 Frequencies --    311.9434               343.2268               347.3201
 Red. masses --      3.0423                 2.4281                 2.9030
 Frc consts  --      0.1744                 0.1685                 0.2063
 IR Inten    --      1.8786                 0.6681                 3.5689

                     22                     23                     24
                      A                      A                      A
 Frequencies --    358.6260               383.7730               443.1321
 Red. masses --      3.5398                 3.1154                 6.2906
 Frc consts  --      0.2682                 0.2703                 0.7278
 IR Inten    --     17.3598                 7.3858                19.5791

                     25                     26                     27
                      A                      A                      A
 Frequencies --    488.0229               524.2413               532.7197
 Red. masses --      5.7559                 4.7116                 3.9564
 Frc consts  --      0.8077                 0.7629                 0.6615
 IR Inten    --      2.6776                27.7718                 7.8051

                     28                     29                     30
                      A                      A                      A
 Frequencies --    534.5073               667.4981               687.6793
 Red. masses --      4.3153                 3.2659                 5.1601
 Frc consts  --      0.7264                 0.8573                 1.4377
 IR Inten    --      2.3627                15.6457                 8.1389

                     31                     32                     33
                      A                      A                      A
 Frequencies --    760.8794               773.9568               782.9504
 Red. masses --      5.1738                 2.0507                 2.5015
 Frc consts  --      1.7648                 0.7237                 0.9035
 IR Inten    --      0.3034                 1.0299                12.0021

                     34                     35                     36
                      A                      A                      A
 Frequencies --    790.4483               874.6894               874.9268
 Red. masses --      2.9201                 4.1197                 2.6102
 Frc consts  --      1.0750                 1.8571                 1.1773
 IR Inten    --      2.9529                18.7200                 1.2969

                     37                     38                     39
                      A                      A                      A
 Frequencies --    919.8641               946.2633               959.2404
 Red. masses --      2.7768                 1.8137                 1.9265
 Frc consts  --      1.3843                 0.9569                 1.0444
 IR Inten    --      0.3892                 2.4873                 0.2910

                     40                     41                     42
                      A                      A                      A
 Frequencies --    995.2684               995.5323              1041.5969
 Red. masses --      2.0905                 1.6091                 2.3500
 Frc consts  --      1.2200                 0.9396                 1.5021
 IR Inten    --      1.8847                 6.8094                11.8611

                     43                     44                     45
                      A                      A                      A
 Frequencies --   1050.9491              1084.4309              1106.0364
 Red. masses --      4.1284                 3.0218                 1.9195
 Frc consts  --      2.6865                 2.0937                 1.3835
 IR Inten    --      4.8707                49.4074                 1.7374

                     46                     47                     48
                      A                      A                      A
 Frequencies --   1108.7919              1177.1453              1183.3794
 Red. masses --      2.1403                 2.8154                 2.1470
 Frc consts  --      1.5504                 2.2986                 1.7714
 IR Inten    --      8.4496                52.5572                22.2006

                     49                     50                     51
                      A                      A                      A
 Frequencies --   1185.4465              1188.5506              1189.0067
 Red. masses --      2.1880                 1.2963                 1.3815
 Frc consts  --      1.8116                 1.0789                 1.1507
 IR Inten    --     79.3332                 2.0528                 5.6313

                     52                     53                     54
                      A                      A                      A
 Frequencies --   1226.1377              1227.5671              1232.5150
 Red. masses --      2.2367                 1.6582                 2.1532
 Frc consts  --      1.9812                 1.4722                 1.9272
 IR Inten    --      2.8643                 0.0701                 9.0961

                     55                     56                     57
                      A                      A                      A
 Frequencies --   1235.9199              1276.6114              1314.7072
 Red. masses --      2.7804                 1.4741                 4.0212
 Frc consts  --      2.5023                 1.4155                 4.0951
 IR Inten    --     31.4551                34.7983               460.5361

                     58                     59                     60
                      A                      A                      A
 Frequencies --   1323.5959              1334.3742              1339.6867
 Red. masses --      1.3184                 2.3874                 4.0811
 Frc consts  --      1.3608                 2.5045                 4.3155
 IR Inten    --      2.2135                68.7257               182.2033

                     61                     62                     63
                      A                      A                      A
 Frequencies --   1378.8576              1380.9893              1399.7798
 Red. masses --      1.5858                 1.4426                 1.4599
 Frc consts  --      1.7764                 1.6210                 1.6854
 IR Inten    --     30.4097                 7.3885                 0.3563

                     64                     65                     66
                      A                      A                      A
 Frequencies --   1413.7950              1416.7413              1478.1776
 Red. masses --      1.3357                 1.2741                 1.0799
 Frc consts  --      1.5730                 1.5067                 1.3903
 IR Inten    --      0.4316                18.7157                 3.4770

                     67                     68                     69
                      A                      A                      A
 Frequencies --   1480.9120              1482.4406              1484.9137
 Red. masses --      1.0958                 1.1572                 1.1802
 Frc consts  --      1.4159                 1.4984                 1.5333
 IR Inten    --      0.9570                 8.1110                 9.2700

                     70                     71                     72
                      A                      A                      A
 Frequencies --   1492.7084              1494.2272              1494.3254
 Red. masses --      1.0864                 1.0468                 1.0424
 Frc consts  --      1.4262                 1.3770                 1.3715
 IR Inten    --     21.6854                12.4351                 7.7070

                     73                     74                     75
                      A                      A                      A
 Frequencies --   1496.0842              1500.0078              1504.7969
 Red. masses --      1.2128                 1.2945                 1.0446
 Frc consts  --      1.5994                 1.7161                 1.3936
 IR Inten    --      9.1068                11.1011                16.0114

                     76                     77                     78
                      A                      A                      A
 Frequencies --   1504.9644              1508.7883              1514.6729
 Red. masses --      1.0459                 2.3381                 1.0854
 Frc consts  --      1.3957                 3.1360                 1.4672
 IR Inten    --      4.2011                 4.7968                39.6452

                     79                     80                     81
                      A                      A                      A
 Frequencies --   1520.3159              1849.2084              1849.3924
 Red. masses --      1.2336                12.0284                12.0454
 Frc consts  --      1.6799                24.2343                24.2733
 IR Inten    --     15.8666                 7.1420               412.5209

                     82                     83                     84
                      A                      A                      A
 Frequencies --   3079.2670              3084.0063              3084.0677
 Red. masses --      1.0607                 1.0382                 1.0352
 Frc consts  --      5.9254                 5.8177                 5.8011
 IR Inten    --     11.2135                 0.0971                15.0316

                     85                     86                     87
                      A                      A                      A
 Frequencies --   3085.7403              3085.8246              3087.7684
 Red. masses --      1.0305                 1.0305                 1.0649
 Frc consts  --      5.7811                 5.7813                 5.9820
 IR Inten    --     34.5726                15.4048                21.3334

                     88                     89                     90
                      A                      A                      A
 Frequencies --   3093.2937              3112.6479              3141.6016
 Red. masses --      1.0631                 1.1043                 1.1000
 Frc consts  --      5.9931                 6.3038                 6.3966
 IR Inten    --     26.6134                 4.0559                 0.8060

                     91                     92                     93
                      A                      A                      A
 Frequencies --   3148.0207              3161.5603              3161.6071
 Red. masses --      1.1007                 1.1018                 1.1017
 Frc consts  --      6.4265                 6.4888                 6.4880
 IR Inten    --     26.6923                 0.7679                17.3295

                     94                     95                     96
                      A                      A                      A
 Frequencies --   3162.0603              3162.0871              3174.9312
 Red. masses --      1.1065                 1.1065                 1.1033
 Frc consts  --      6.5186                 6.5186                 6.5526
 IR Inten    --     12.3423                11.1755                 0.9026

                     97                     98                     99
                      A                      A                      A
 Frequencies --   3175.1481              3196.5125              3196.5187
 Red. masses --      1.1031                 1.1067                 1.1067
 Frc consts  --      6.5523                 6.6627                 6.6626
 IR Inten    --      9.3249                16.1694                 3.0029

 - Thermochemistry -
 -------------------
 Temperature   298.150 Kelvin.  Pressure   1.00000 Atm.
 Atom     1 has atomic number  8 and mass  15.99491

 Molecular mass:   244.11850 amu.
 Principal axes and moments of inertia in atomic units:
                           1         2         3
     Eigenvalues --  2215.641905491.297106187.75902
           X            0.99994  -0.00000  -0.01062
           Y            0.00000   1.00000   0.00000
           Z            0.01062  -0.00000   0.99994
 This molecule is an asymmetric top.
 Rotational symmetry number  1.
 Warning -- assumption of classical behavior for rotation
           may cause significant error
 Rotational temperatures (Kelvin)      0.03909     0.01577     0.01400
 Rotational constants (GHZ):           0.81455     0.32865     0.29166
 Zero-point vibrational energy     773465.2 (Joules/Mol)
                                  184.86262 (Kcal/Mol)
 Warning -- explicit consideration of  28 degrees of freedom as
           vibrations may cause significant error
 Vibrational temperatures:     42.73    51.95    84.56   142.67   169.19
          (Kelvin)            188.48   209.29   216.62   249.39   257.03
                              292.57   323.87   340.26   359.76   369.19
                              389.46   404.12   442.97   448.82   493.83
                              499.72   515.98   552.16   637.57   702.16
                              754.27   766.46   769.04   960.38   989.42
                             1094.74  1113.55  1126.49  1137.28  1258.48
                             1258.82  1323.48  1361.46  1380.13  1431.97
                             1432.35  1498.63  1512.08  1560.25  1591.34
                             1595.30  1693.65  1702.62  1705.59  1710.06
                             1710.72  1764.14  1766.20  1773.31  1778.21
                             1836.76  1891.57  1904.36  1919.87  1927.51
                             1983.87  1986.94  2013.97  2034.14  2038.37
                             2126.77  2130.70  2132.90  2136.46  2147.67
                             2149.86  2150.00  2152.53  2158.18  2165.07
                             2165.31  2170.81  2179.28  2187.40  2660.60
                             2660.86  4430.38  4437.20  4437.29  4439.69
                             4439.81  4442.61  4450.56  4478.41  4520.06
                             4529.30  4548.78  4548.85  4549.50  4549.54
                             4568.02  4568.33  4599.07  4599.08

 Zero-point correction=                           0.294597 (Hartree/Particle)
 Thermal correction to Energy=                    0.312747
 Thermal correction to Enthalpy=                  0.313691
 Thermal correction to Gibbs Free Energy=         0.247950
 Sum of electronic and zero-point Energies=           -860.515701
 Sum of electronic and thermal Energies=              -860.497551
 Sum of electronic and thermal Enthalpies=            -860.496606
 Sum of electronic and thermal Free Energies=         -860.562347

                     E (Thermal)             CV                S
                      KCal/Mol        Cal/Mol-Kelvin    Cal/Mol-Kelvin
 Total                  196.252             66.709            138.364
 Electronic               0.000              0.000              1.377
 Translational            0.889              2.981             42.378
 Rotational               0.889              2.981             32.687
 Vibrational            194.474             60.748             61.921
 Vibration     1          0.593              1.984              5.849
 Vibration     2          0.594              1.982              5.462
 Vibration     3          0.596              1.974              4.498
 Vibration     4          0.604              1.950              3.471
 Vibration     5          0.608              1.935              3.140
 Vibration     6          0.612              1.922              2.931
 Vibration     7          0.617              1.908              2.731
 Vibration     8          0.618              1.902              2.665
 Vibration     9          0.627              1.875              2.399
 Vibration    10          0.629              1.869              2.343
 Vibration    11          0.639              1.835              2.103
 Vibration    12          0.650              1.803              1.918
 Vibration    13          0.655              1.785              1.829
 Vibration    14          0.663              1.763              1.730
 Vibration    15          0.666              1.752              1.685
 Vibration    16          0.674              1.727              1.592
 Vibration    17          0.681              1.709              1.528
 Vibration    18          0.698              1.659              1.374
 Vibration    19          0.700              1.651              1.352
 Vibration    20          0.722              1.589              1.197
 Vibration    21          0.725              1.581              1.178
 Vibration    22          0.733              1.558              1.128
 Vibration    23          0.753              1.505              1.024
 Vibration    24          0.803              1.376              0.817
 Vibration    25          0.844              1.277              0.689
 Vibration    26          0.879              1.196              0.600
 Vibration    27          0.888              1.178              0.581
 Vibration    28          0.889              1.174              0.577

 Optimization completed.
    -- Stationary point found.

 1\1\GINC-BD23\Freq\UM062X\def2TZVP\C11H18N1O5(2)\MIYAO\09-Jan-2025\0\\
 #P Geom=AllCheck Guess=TCheck SCRF=Check GenChk UM062X/def2TZVP Freq\\
 data_set_3-catalyst-Mix_1_opt\\0,2\O,0.0003629028,-1.4510280352,-0.000
 0891358\N,0.0001923395,-0.1863033006,-0.0000171156\C,-1.2453468156,0.5
 170219489,-0.3482026719\C,-1.2450593682,1.8942109716,0.3210196202\C,-0
 .0001601667,2.7336807351,0.0000783915\C,1.2449398278,1.8945304886,-0.3
 209156564\C,1.2455535032,0.5173057877,0.3482307241\C,1.3947620264,0.58
 69144905,1.8650740687\C,2.3497407056,-0.3226960901,-0.3221966767\O,2.4

 Normal termination of Gaussian 16 at Thu Jan  9 23:54:34 2025.
