 Gaussian 16, Revision C.01,
 Gaussian 16:  ES64L-G16RevC.01  3-Jul-2019

 ----------------------------------
 #p M062X/DEF2TZVP opt freq pop=NBO
 ----------------------------------

 ------------------------------
 data_set_3-catalyst-Mix_16_opt
 ------------------------------
 Symbolic Z-matrix:
 Charge =  0 Multiplicity = 2

 SCF Done:  E(UM062X) =  -714.916533717     A.U. after   18 cycles
 SCF Done:  E(UM062X) =  -714.923138642     A.U. after   17 cycles
 SCF Done:  E(UM062X) =  -714.922935377     A.U. after   15 cycles
 SCF Done:  E(UM062X) =  -714.923194169     A.U. after   15 cycles
 SCF Done:  E(UM062X) =  -714.923602244     A.U. after   15 cycles
 SCF Done:  E(UM062X) =  -714.923607637     A.U. after   12 cycles
 SCF Done:  E(UM062X) =  -714.923649602     A.U. after   13 cycles
 SCF Done:  E(UM062X) =  -714.923675137     A.U. after   14 cycles
 SCF Done:  E(UM062X) =  -714.923697856     A.U. after   12 cycles
 SCF Done:  E(UM062X) =  -714.923709689     A.U. after   13 cycles
 SCF Done:  E(UM062X) =  -714.923723328     A.U. after   12 cycles
 SCF Done:  E(UM062X) =  -714.923729417     A.U. after   13 cycles
 SCF Done:  E(UM062X) =  -714.923731221     A.U. after    8 cycles
 SCF Done:  E(UM062X) =  -714.923732145     A.U. after   12 cycles
 SCF Done:  E(UM062X) =  -714.923732252     A.U. after    8 cycles
 SCF Done:  E(UM062X) =  -714.923732278     A.U. after    7 cycles
 SCF Done:  E(UM062X) =  -714.923732307     A.U. after    7 cycles
 Optimization completed.
    -- Stationary point found.

 1\1\GINC-BD21\FOpt\UM062X\def2TZVP\C13H24N1O2(2)\MIYAO\09-Jan-2025\0\\
 #p M062X/DEF2TZVP opt freq pop=NBO\\data_set_3-catalyst-Mix_16_opt\\0,
 2\O,0.4570146356,1.2124032395,-1.4360585759\N,0.2466109699,0.519450236
 5,-0.3957693014\C,1.3754615746,-0.3377954547,0.0582432016\C,-1.1870387
 15,0.3155158611,-0.0357335555\C,2.669224899,0.4872012665,-0.0202293218
 \C,1.5095937271,-1.6023291145,-0.8218385091\C,-1.7868729804,-0.6884614
 008,-1.0418899944\C,-1.9049046538,1.6698491989,-0.1476916029\H,2.93117
 34556,0.6234309664,-1.0682867187\H,3.451986287,-0.1297697547,0.4297274

 Normal termination of Gaussian 16 at Thu Jan  9 18:16:43 2025.

 --------------------------------------------------------------------
 #P Geom=AllCheck Guess=TCheck SCRF=Check GenChk UM062X/def2TZVP Freq
 --------------------------------------------------------------------

 Structure from the checkpoint file:  "outputs/data_set_3-catalyst-Mix_16_opt.chk"
 ------------------------------
 data_set_3-catalyst-Mix_16_opt
 ------------------------------
 Charge =  0 Multiplicity = 2

                         Standard orientation:
 ---------------------------------------------------------------------
 Center     Atomic      Atomic             Coordinates (Angstroms)
 Number     Number       Type             X           Y           Z
 ---------------------------------------------------------------------
      1          8           0       -0.491919    1.214353    1.425472
      2          7           0       -0.260219    0.522335    0.389093
      3          6           0       -1.372093   -0.350959   -0.076090
      4          6           0        1.180102    0.337123    0.045965
      5          6           0       -2.677694    0.456615   -0.014175
      6          6           0       -1.499263   -1.615517    0.804989
      7          6           0        1.781815   -0.656739    1.061003
      8          6           0        1.878282    1.701250    0.163377
      9          1           0       -2.953504    0.591279    1.030523
     10          1           0       -3.446824   -0.171739   -0.471823
     11          1           0       -0.701141   -2.315020    0.544833
     12          1           0       -2.429036   -2.102350    0.495380
     13          1           0        1.333237   -1.640780    0.904195
     14          1           0        1.474832   -0.312157    2.050506
     15          1           0        2.878642    1.578386   -0.258446
     16          1           0        2.002841    1.933551    1.222137
     17          6           0       -1.519589   -1.399226    2.312035
     18          6           0       -2.643391    1.820827   -0.689789
     19          6           0        1.166785    2.860380   -0.522018
     20          6           0        3.300520   -0.791300    1.025533
     21          6           0       -1.107550   -0.810170   -1.521120
     22          6           0        0.313676   -1.279972   -1.675121
     23          6           0        1.318100   -0.197016   -1.389591
     24          8           0        0.617117   -2.409617   -1.962416
     25          1           0       -2.316207   -0.722730    2.618552
     26          1           0       -0.582082   -0.979863    2.671580
     27          1           0       -1.678882   -2.354650    2.813204
     28          1           0       -3.636979    2.268987   -0.671302
     29          1           0       -2.334095    1.765077   -1.734665
     30          1           0       -1.963258    2.490036   -0.166534
     31          1           0        0.919892    2.642413   -1.562846
     32          1           0        1.804853    3.744161   -0.518759
     33          1           0        0.245075    3.106563    0.000880
     34          1           0        3.794750    0.141763    1.294270
     35          1           0        3.666057   -1.102216    0.046193
     36          1           0        3.617055   -1.548737    1.742480
     37          1           0       -1.264995    0.022960   -2.209486
     38          1           0       -1.792801   -1.617755   -1.774698
     39          1           0        1.140393    0.616734   -2.096756
     40          1           0        2.323930   -0.579923   -1.547495
 ---------------------------------------------------------------------

 SCF Done:  E(UM062X) =  -714.923732307     A.U. after    1 cycles

 The electronic state is 2-A.
 Alpha  occ. eigenvalues --  -19.63161 -19.62712 -14.84367 -10.63427 -10.59921
 Alpha  occ. eigenvalues --  -10.59913 -10.55130 -10.55124 -10.54167 -10.54134
 Alpha  occ. eigenvalues --  -10.53894 -10.53846 -10.53130 -10.52485 -10.52455
 Alpha  occ. eigenvalues --  -10.52199  -1.23691  -1.17983  -0.99067  -0.94763
 Alpha  occ. eigenvalues --   -0.87035  -0.86074  -0.85608  -0.85279  -0.82506
 Alpha  occ. eigenvalues --   -0.76495  -0.74778  -0.71448  -0.70505  -0.67461
 Alpha  occ. eigenvalues --   -0.64563  -0.60456  -0.58491  -0.57830  -0.56656
 Alpha  occ. eigenvalues --   -0.55458  -0.54322  -0.52718  -0.52207  -0.52014
 Alpha  occ. eigenvalues --   -0.50854  -0.49817  -0.48704  -0.48404  -0.47290
 Alpha  occ. eigenvalues --   -0.46120  -0.45629  -0.44960  -0.44222  -0.43795
 Alpha  occ. eigenvalues --   -0.43502  -0.43172  -0.42684  -0.42404  -0.41185
 Alpha  occ. eigenvalues --   -0.40569  -0.39256  -0.38947  -0.38563  -0.38315
 Alpha  occ. eigenvalues --   -0.34165  -0.32276  -0.26573
 Alpha virt. eigenvalues --    0.01337   0.05859   0.06983   0.07218   0.08494
 Alpha virt. eigenvalues --    0.08814   0.10027   0.10602   0.11293   0.12050
 Alpha virt. eigenvalues --    0.12385   0.12890   0.13082   0.13519   0.14142

  Beta  occ. eigenvalues --  -19.62710 -19.62101 -14.83607 -10.63428 -10.59953
  Beta  occ. eigenvalues --  -10.59946 -10.55127 -10.55122 -10.54126 -10.54099
  Beta  occ. eigenvalues --  -10.53881 -10.53834 -10.53125 -10.52487 -10.52457
  Beta  occ. eigenvalues --  -10.52199  -1.20831  -1.17969  -0.97920  -0.94613
  Beta  occ. eigenvalues --   -0.86942  -0.85987  -0.85487  -0.83531  -0.82494
  Beta  occ. eigenvalues --   -0.76299  -0.74306  -0.71271  -0.70422  -0.66978
  Beta  occ. eigenvalues --   -0.64387  -0.59476  -0.58109  -0.56414  -0.55387
  Beta  occ. eigenvalues --   -0.54896  -0.53934  -0.52461  -0.51993  -0.51557
  Beta  occ. eigenvalues --   -0.50343  -0.49744  -0.48523  -0.48279  -0.46045
  Beta  occ. eigenvalues --   -0.45512  -0.45381  -0.44519  -0.44145  -0.43440
  Beta  occ. eigenvalues --   -0.43216  -0.42682  -0.42371  -0.41334  -0.41116
  Beta  occ. eigenvalues --   -0.40345  -0.38855  -0.38500  -0.38209  -0.36835
  Beta  occ. eigenvalues --   -0.32810  -0.32005
  Beta virt. eigenvalues --   -0.01990   0.01647   0.06028   0.07011   0.07262
  Beta virt. eigenvalues --    0.08550   0.08850   0.10036   0.10633   0.11403
  Beta virt. eigenvalues --    0.12145   0.12745   0.13081   0.13263   0.13558

 Mulliken charges and spin densities:
               1          2
     1  O   -0.381354   0.522216
     2  N    0.149383   0.439361
     3  C    0.069643   0.010762
     4  C    0.140738   0.014860
     5  C   -0.244826  -0.015683
     6  C   -0.328336   0.026143
     7  C   -0.362195   0.025514
     8  C   -0.297336  -0.020615
     9  H    0.154928  -0.000867
    10  H    0.146822  -0.000866
    11  H    0.179506  -0.001335
    12  H    0.159294   0.004579
    13  H    0.165189  -0.000997
    14  H    0.184603  -0.003099
    15  H    0.159297  -0.000764
    16  H    0.171475  -0.000456
    17  C   -0.406537  -0.005590
    18  C   -0.447513   0.013727
    19  C   -0.453263   0.017495
    20  C   -0.449666   0.002510
    21  C   -0.366457   0.004883
    22  C    0.231282  -0.011822
    23  C   -0.391747   0.006122
    24  O   -0.265731   0.000974
    25  H    0.142314   0.001830
    26  H    0.155210   0.000335
    27  H    0.144566   0.002535
    28  H    0.150366  -0.001474
    29  H    0.129503  -0.003695
    30  H    0.157637  -0.003798
    31  H    0.130317  -0.004523
    32  H    0.149364  -0.001588
    33  H    0.163290  -0.004160
    34  H    0.157719  -0.000255
    35  H    0.144459   0.000101
    36  H    0.152891   0.001759
    37  H    0.181221  -0.005615
    38  H    0.172721  -0.001251
    39  H    0.181489  -0.005898
    40  H    0.169735  -0.001355
 Sum of Mulliken charges =  -0.00000   1.00000

 Dipole moment (field-independent basis, Debye):
    X=             -0.1115    Y=              0.9612    Z=             -0.5296  Tot=              1.1031
 Quadrupole moment (field-independent basis, Debye-Ang):
   XX=            -94.7335   YY=           -110.1295   ZZ=           -104.8900
   XY=              4.4751   XZ=              3.1976   YZ=             -9.3003

  Exact polarizability:     168.330      -2.079     161.105       0.351      -0.424     146.352
 Approx polarizability:     191.154      -2.890     198.842      -2.303       8.835     189.724

 Summary of Natural Population Analysis:

                                       Natural Population
                Natural  -----------------------------------------------
    Atom  No    Charge         Core      Valence    Rydberg      Total
 -----------------------------------------------------------------------
      O    1    0.04544      0.99993     2.94941    0.00522     3.95456
      N    2    0.23645      0.99969     2.24359    0.02027     3.26355
      C    3    0.05954      0.99962     1.93048    0.01036     2.94046
      C    4    0.06115      0.99962     1.92866    0.01057     2.93885
      C    5   -0.19680      0.99969     2.18860    0.00851     3.19680
      C    6   -0.19116      0.99968     2.18403    0.00745     3.19116
      C    7   -0.19380      0.99968     2.18599    0.00813     3.19380
      C    8   -0.19841      0.99969     2.19000    0.00872     3.19841
      H    9    0.11229      0.00000     0.38697    0.00074     0.38771
      H   10    0.10152      0.00000     0.39790    0.00058     0.39848
      H   11    0.10302      0.00000     0.39622    0.00076     0.39698
      H   12    0.10677      0.00000     0.39260    0.00063     0.39323
      H   13    0.10254      0.00000     0.39679    0.00066     0.39746
      H   14    0.11007      0.00000     0.38912    0.00080     0.38993
      H   15    0.10296      0.00000     0.39648    0.00056     0.39704
      H   16    0.11158      0.00000     0.38774    0.00068     0.38842
      C   17   -0.30210      0.99975     2.29700    0.00536     3.30210
      C   18   -0.30197      0.99974     2.29709    0.00514     3.30197
      C   19   -0.30132      0.99974     2.29643    0.00515     3.30132
      C   20   -0.30104      0.99974     2.29628    0.00501     3.30104
      C   21   -0.26077      0.99962     2.25223    0.00891     3.26077
      C   22    0.30306      0.99970     1.68166    0.01558     2.69694
      C   23   -0.26602      0.99962     2.25738    0.00902     3.26602
      O   24   -0.26345      0.99989     3.24947    0.01409     4.26345
      H   25    0.10448      0.00000     0.39493    0.00059     0.39552
      H   26    0.10605      0.00000     0.39322    0.00073     0.39395
      H   27    0.10649      0.00000     0.39313    0.00038     0.39351
      H   28    0.10683      0.00000     0.39281    0.00036     0.39317
      H   29    0.09599      0.00000     0.40336    0.00066     0.40401
      H   30    0.10982      0.00000     0.38949    0.00070     0.39018
      H   31    0.09626      0.00000     0.40312    0.00062     0.40374
      H   32    0.10643      0.00000     0.39320    0.00037     0.39357
      H   33    0.11024      0.00000     0.38908    0.00067     0.38976
      H   34    0.10262      0.00000     0.39686    0.00052     0.39738
      H   35    0.10092      0.00000     0.39857    0.00051     0.39908
      H   36    0.10989      0.00000     0.38974    0.00037     0.39011
      H   37    0.11491      0.00000     0.38435    0.00074     0.38509
      H   38    0.11704      0.00000     0.38219    0.00076     0.38296
      H   39    0.11525      0.00000     0.38398    0.00077     0.38475
      H   40    0.11720      0.00000     0.38160    0.00120     0.38280
 =======================================================================
   * Total *    0.50000     15.99541    45.84175    0.16285    62.00000

                      1                      2                      3
                      A                      A                      A
 Frequencies --     45.4521                68.0880                83.6438
 Red. masses --      3.0644                 1.8535                 2.7545
 Frc consts  --      0.0037                 0.0051                 0.0114
 IR Inten    --      0.8513                 0.5861                 3.4982

                      4                      5                      6
                      A                      A                      A
 Frequencies --     88.4338                99.8624               136.4004
 Red. masses --      2.9952                 1.9305                 2.1382
 Frc consts  --      0.0138                 0.0113                 0.0234
 IR Inten    --      1.4126                 0.9245                 0.0216

                      7                      8                      9
                      A                      A                      A
 Frequencies --    151.4842               189.4160               193.7193
 Red. masses --      1.8299                 2.5008                 2.0498
 Frc consts  --      0.0247                 0.0529                 0.0453
 IR Inten    --      0.7647                 0.3181                 1.1174

                     10                     11                     12
                      A                      A                      A
 Frequencies --    207.8273               215.1238               226.4455
 Red. masses --      1.9821                 2.1838                 1.4570
 Frc consts  --      0.0504                 0.0595                 0.0440
 IR Inten    --      0.6770                 1.5754                 0.3429

                     13                     14                     15
                      A                      A                      A
 Frequencies --    242.8265               261.7928               268.2429
 Red. masses --      2.4916                 1.9622                 1.8157
 Frc consts  --      0.0866                 0.0792                 0.0770
 IR Inten    --      2.9185                 0.8294                 0.3211

                     16                     17                     18
                      A                      A                      A
 Frequencies --    308.3321               310.1228               321.1006
 Red. masses --      2.4721                 2.5427                 1.9698
 Frc consts  --      0.1385                 0.1441                 0.1197
 IR Inten    --      0.8981                 0.1426                 0.2787

                     19                     20                     21
                      A                      A                      A
 Frequencies --    335.7253               366.6346               387.5121
 Red. masses --      2.4123                 3.1440                 3.5669
 Frc consts  --      0.1602                 0.2490                 0.3156
 IR Inten    --      0.0612                 0.7404                 4.9867

                     22                     23                     24
                      A                      A                      A
 Frequencies --    423.9813               440.1864               464.1961
 Red. masses --      2.3116                 3.4158                 3.1902
 Frc consts  --      0.2448                 0.3900                 0.4050
 IR Inten    --      1.1053                 8.1535                 0.6905

                     25                     26                     27
                      A                      A                      A
 Frequencies --    487.3665               521.8785               528.8332
 Red. masses --      3.4027                 2.7687                 3.0096
 Frc consts  --      0.4762                 0.4443                 0.4959
 IR Inten    --      3.4633                 3.6505                15.6486

                     28                     29                     30
                      A                      A                      A
 Frequencies --    575.2979               596.8628               623.0044
 Red. masses --      3.6827                 4.2527                 3.4683
 Frc consts  --      0.7181                 0.8926                 0.7931
 IR Inten    --      2.4302                 3.4165                 0.1623

                     31                     32                     33
                      A                      A                      A
 Frequencies --    740.8593               756.2957               784.8162
 Red. masses --      1.9296                 1.7029                 1.2054
 Frc consts  --      0.6240                 0.5739                 0.4375
 IR Inten    --      1.1224                 0.1300                 1.4439

                     34                     35                     36
                      A                      A                      A
 Frequencies --    793.2729               815.9957               827.9181
 Red. masses --      1.2488                 1.5441                 1.6268
 Frc consts  --      0.4630                 0.6057                 0.6570
 IR Inten    --      0.6493                10.5198                11.3055

                     37                     38                     39
                      A                      A                      A
 Frequencies --    864.1583               874.9264               899.1792
 Red. masses --      2.3686                 2.0223                 2.5924
 Frc consts  --      1.0421                 0.9121                 1.2350
 IR Inten    --      1.6608                 2.1035                 0.8721

                     40                     41                     42
                      A                      A                      A
 Frequencies --    953.7890               972.4150               988.1393
 Red. masses --      1.8589                 2.0114                 1.7088
 Frc consts  --      0.9963                 1.1206                 0.9830
 IR Inten    --      0.2314                 7.9043                 1.8908

                     43                     44                     45
                      A                      A                      A
 Frequencies --   1010.9998              1023.0278              1050.9402
 Red. masses --      1.6979                 1.6476                 1.7194
 Frc consts  --      1.0225                 1.0160                 1.1189
 IR Inten    --      3.6767                 4.3606                 5.0220

                     46                     47                     48
                      A                      A                      A
 Frequencies --   1056.0814              1061.7013              1079.0653
 Red. masses --      1.6014                 1.8410                 2.4337
 Frc consts  --      1.0523                 1.2227                 1.6696
 IR Inten    --      1.0029                 1.9307                 0.3977

                     49                     50                     51
                      A                      A                      A
 Frequencies --   1086.1400              1091.2864              1104.7636
 Red. masses --      1.9510                 1.8119                 2.0214
 Frc consts  --      1.3561                 1.2714                 1.4536
 IR Inten    --      1.7304                 0.6305                 0.4936

                     52                     53                     54
                      A                      A                      A
 Frequencies --   1121.6384              1150.3719              1179.7746
 Red. masses --      2.3010                 2.2797                 2.9022
 Frc consts  --      1.7056                 1.7775                 2.3800
 IR Inten    --      1.9052                 2.5342                 0.5615

                     55                     56                     57
                      A                      A                      A
 Frequencies --   1198.5780              1209.8974              1226.9453
 Red. masses --      2.7293                 1.9958                 1.9773
 Frc consts  --      2.3101                 1.7213                 1.7538
 IR Inten    --      5.3678                 0.8230                10.0530

                     58                     59                     60
                      A                      A                      A
 Frequencies --   1230.8754              1260.5113              1280.4685
 Red. masses --      2.2437                 1.3560                 1.5856
 Frc consts  --      2.0028                 1.2694                 1.5317
 IR Inten    --     13.3131                12.1625                 6.6614

                     61                     62                     63
                      A                      A                      A
 Frequencies --   1301.1612              1310.1217              1324.3076
 Red. masses --      1.2576                 1.4149                 1.3367
 Frc consts  --      1.2545                 1.4309                 1.3812
 IR Inten    --      6.7572                16.5382                 5.5076

                     64                     65                     66
                      A                      A                      A
 Frequencies --   1338.3161              1361.5713              1364.1757
 Red. masses --      1.5251                 1.6672                 1.5957
 Frc consts  --      1.6094                 1.8210                 1.7496
 IR Inten    --     23.6138                28.7340                15.7388

                     67                     68                     69
                      A                      A                      A
 Frequencies --   1372.9373              1378.0893              1378.8191
 Red. masses --      1.4629                 1.4977                 1.4483
 Frc consts  --      1.6247                 1.6758                 1.6222
 IR Inten    --      4.6320                 2.7581                 3.0971

                     70                     71                     72
                      A                      A                      A
 Frequencies --   1385.7119              1413.0629              1416.9859
 Red. masses --      1.4996                 1.2805                 1.2593
 Frc consts  --      1.6966                 1.5065                 1.4898
 IR Inten    --      7.6487                 0.3387                 0.6897

                     73                     74                     75
                      A                      A                      A
 Frequencies --   1421.0905              1426.5758              1465.9671
 Red. masses --      1.2751                 1.2709                 1.1195
 Frc consts  --      1.5171                 1.5239                 1.4175
 IR Inten    --      9.7438                 5.7367                 8.5142

                     76                     77                     78
                      A                      A                      A
 Frequencies --   1468.7882              1477.9992              1481.3155
 Red. masses --      1.9744                 1.0914                 1.3452
 Frc consts  --      2.5096                 1.4047                 1.7391
 IR Inten    --      0.9028                 0.7525                 5.6582

                     79                     80                     81
                      A                      A                      A
 Frequencies --   1484.0561              1485.1060              1492.7025
 Red. masses --      1.2686                 1.1047                 1.0573
 Frc consts  --      1.6461                 1.4355                 1.3880
 IR Inten    --      2.2774                 2.8523                14.9034

                     82                     83                     84
                      A                      A                      A
 Frequencies --   1494.3996              1500.6321              1501.8678
 Red. masses --      1.0648                 1.0475                 1.0467
 Frc consts  --      1.4010                 1.3898                 1.3910
 IR Inten    --      1.1570                 9.2689                12.3165

                     85                     86                     87
                      A                      A                      A
 Frequencies --   1503.3852              1504.9917              1507.6602
 Red. masses --      1.0685                 1.0469                 1.0916
 Frc consts  --      1.4229                 1.3970                 1.4619
 IR Inten    --      0.5404                 4.6299                14.7712

                     88                     89                     90
                      A                      A                      A
 Frequencies --   1513.2627              1519.6765              1853.6848
 Red. masses --      1.0461                 1.0677                11.2167
 Frc consts  --      1.4114                 1.4528                22.7084
 IR Inten    --     10.2776                11.7536               231.7516

                     91                     92                     93
                      A                      A                      A
 Frequencies --   3057.3223              3069.9528              3070.1785
 Red. masses --      1.0636                 1.0484                 1.0587
 Frc consts  --      5.8577                 5.8214                 5.8794
 IR Inten    --      7.3058                 3.4338                 1.1106

                     94                     95                     96
                      A                      A                      A
 Frequencies --   3071.7644              3073.5903              3073.8494
 Red. masses --      1.0600                 1.0482                 1.0461
 Frc consts  --      5.8931                 5.8342                 5.8235
 IR Inten    --     19.2747                 9.2329                24.0262

                     97                     98                     99
                      A                      A                      A
 Frequencies --   3075.5171              3082.5085              3083.5461
 Red. masses --      1.0505                 1.0404                 1.0561
 Frc consts  --      5.8547                 5.8246                 5.9163
 IR Inten    --     43.6095                22.7088                 5.7558

                    100                    101                    102
                      A                      A                      A
 Frequencies --   3090.7213              3099.0417              3116.9605
 Red. masses --      1.0597                 1.0977                 1.1015
 Frc consts  --      5.9644                 6.2115                 6.3055
 IR Inten    --     17.0280                 8.7957                 1.7672

                    103                    104                    105
                      A                      A                      A
 Frequencies --   3120.3301              3129.6026              3135.6914
 Red. masses --      1.1012                 1.0978                 1.1000
 Frc consts  --      6.3170                 6.3351                 6.3725
 IR Inten    --      3.7459                12.2616                27.0165

                    106                    107                    108
                      A                      A                      A
 Frequencies --   3140.4538              3142.7429              3150.1845
 Red. masses --      1.1013                 1.0984                 1.0984
 Frc consts  --      6.3996                 6.3921                 6.4220
 IR Inten    --     21.9189                13.2681                 5.8946

                    109                    110                    111
                      A                      A                      A
 Frequencies --   3150.9247              3151.5994              3163.0517
 Red. masses --      1.1022                 1.1018                 1.0984
 Frc consts  --      6.4473                 6.4477                 6.4750
 IR Inten    --     26.0854                17.3079                10.7462

                    112                    113                    114
                      A                      A                      A
 Frequencies --   3164.2412              3170.2895              3171.1611
 Red. masses --      1.1012                 1.0999                 1.0996
 Frc consts  --      6.4961                 6.5135                 6.5152
 IR Inten    --      8.9287                15.4068                13.6539

 - Thermochemistry -
 -------------------
 Temperature   298.150 Kelvin.  Pressure   1.00000 Atm.
 Atom     1 has atomic number  8 and mass  15.99491

 Molecular mass:   226.18070 amu.
 Principal axes and moments of inertia in atomic units:
                           1         2         3
     Eigenvalues --  2917.857093611.958524099.33544
           X            0.99960   0.02258   0.01712
           Y           -0.01920   0.98409  -0.17662
           Z           -0.02083   0.17622   0.98413
 This molecule is an asymmetric top.
 Rotational symmetry number  1.
 Warning -- assumption of classical behavior for rotation
           may cause significant error
 Rotational temperatures (Kelvin)      0.02968     0.02398     0.02113
 Rotational constants (GHZ):           0.61852     0.49966     0.44025
 Zero-point vibrational energy     945458.2 (Joules/Mol)
                                  225.96994 (Kcal/Mol)
 Warning -- explicit consideration of  29 degrees of freedom as
           vibrations may cause significant error
 Vibrational temperatures:     65.40    97.96   120.34   127.24   143.68
          (Kelvin)            196.25   217.95   272.53   278.72   299.02
                              309.52   325.80   349.37   376.66   385.94
                              443.62   446.20   461.99   483.03   527.51
                              557.54   610.01   633.33   667.87   701.21
                              750.87   760.87   827.73   858.75   896.36
                             1065.93  1088.14  1129.18  1141.34  1174.04
                             1191.19  1243.33  1258.82  1293.72  1372.29
                             1399.09  1421.71  1454.60  1471.91  1512.07
                             1519.47  1527.55  1552.53  1562.71  1570.12
                             1589.51  1613.79  1655.13  1697.43  1724.49
                             1740.77  1765.30  1770.96  1813.59  1842.31
                             1872.08  1884.97  1905.38  1925.54  1959.00
                             1962.74  1975.35  1982.76  1983.81  1993.73
                             2033.08  2038.73  2044.63  2052.52  2109.20
                             2113.26  2126.51  2131.28  2135.23  2136.74
                             2147.67  2150.11  2159.07  2160.85  2163.04
                             2165.35  2169.19  2177.25  2186.48  2667.04
                             4398.80  4416.98  4417.30  4419.58  4422.21
                             4422.58  4424.98  4435.04  4436.54  4446.86
                             4458.83  4484.61  4489.46  4502.80  4511.56
                             4518.41  4521.71  4532.41  4533.48  4534.45
                             4550.93  4552.64  4561.34  4562.59

 Zero-point correction=                           0.360106 (Hartree/Particle)
 Thermal correction to Energy=                    0.377927
 Thermal correction to Enthalpy=                  0.378871
 Thermal correction to Gibbs Free Energy=         0.315468
 Sum of electronic and zero-point Energies=           -714.563626
 Sum of electronic and thermal Energies=              -714.545805
 Sum of electronic and thermal Enthalpies=            -714.544861
 Sum of electronic and thermal Free Energies=         -714.608265

                     E (Thermal)             CV                S
                      KCal/Mol        Cal/Mol-Kelvin    Cal/Mol-Kelvin
 Total                  237.153             68.826            133.444
 Electronic               0.000              0.000              1.377
 Translational            0.889              2.981             42.151
 Rotational               0.889              2.981             32.135
 Vibrational            235.375             62.865             57.780
 Vibration     1          0.595              1.979              5.006
 Vibration     2          0.598              1.969              4.208
 Vibration     3          0.601              1.960              3.804
 Vibration     4          0.601              1.957              3.694
 Vibration     5          0.604              1.949              3.457
 Vibration     6          0.614              1.917              2.854
 Vibration     7          0.619              1.901              2.654
 Vibration     8          0.633              1.854              2.234
 Vibration     9          0.635              1.849              2.192
 Vibration    10          0.641              1.829              2.063
 Vibration    11          0.645              1.818              2.000
 Vibration    12          0.650              1.801              1.907
 Vibration    13          0.659              1.775              1.782
 Vibration    14          0.669              1.743              1.650
 Vibration    15          0.673              1.732              1.608
 Vibration    16          0.698              1.658              1.371
 Vibration    17          0.699              1.654              1.362
 Vibration    18          0.707              1.633              1.304
 Vibration    19          0.717              1.604              1.232
 Vibration    20          0.740              1.541              1.094
 Vibration    21          0.756              1.497              1.010
 Vibration    22          0.786              1.418              0.879
 Vibration    23          0.800              1.383              0.826
 Vibration    24          0.822              1.329              0.754
 Vibration    25          0.843              1.278              0.690
 Vibration    26          0.877              1.202              0.606
 Vibration    27          0.884              1.186              0.590
 Vibration    28          0.932              1.085              0.494
 Vibration    29          0.955              1.038              0.455

 Optimization completed.
    -- Stationary point found.

 1\1\GINC-BD21\Freq\UM062X\def2TZVP\C13H24N1O2(2)\MIYAO\09-Jan-2025\0\\
 #P Geom=AllCheck Guess=TCheck SCRF=Check GenChk UM062X/def2TZVP Freq\\
 data_set_3-catalyst-Mix_16_opt\\0,2\O,0.4570146356,1.2124032395,-1.436
 0585759\N,0.2466109699,0.5194502365,-0.3957693014\C,1.3754615746,-0.33
 77954547,0.0582432016\C,-1.187038715,0.3155158611,-0.0357335555\C,2.66
 9224899,0.4872012665,-0.0202293218\C,1.5095937271,-1.6023291145,-0.821
 8385091\C,-1.7868729804,-0.6884614008,-1.0418899944\C,-1.9049046538,1.
 6698491989,-0.1476916029\H,2.9311734556,0.6234309664,-1.0682867187\H,3

 Normal termination of Gaussian 16 at Thu Jan  9 21:51:25 2025.
