 Gaussian 16, Revision C.01,
 Gaussian 16:  ES64L-G16RevC.01  3-Jul-2019

 ----------------------------------
 #p M062X/DEF2TZVP opt freq pop=NBO
 ----------------------------------

 ------------------------------
 data_set_3-catalyst-Mix_15_opt
 ------------------------------
 Symbolic Z-matrix:
 Charge =  0 Multiplicity = 2

 SCF Done:  E(UM062X) =  -637.490605817     A.U. after   18 cycles
 SCF Done:  E(UM062X) =  -637.496078836     A.U. after   15 cycles
 SCF Done:  E(UM062X) =  -637.496151152     A.U. after   15 cycles
 SCF Done:  E(UM062X) =  -637.496150830     A.U. after   13 cycles
 SCF Done:  E(UM062X) =  -637.496468490     A.U. after   15 cycles
 SCF Done:  E(UM062X) =  -637.496487288     A.U. after   13 cycles
 SCF Done:  E(UM062X) =  -637.496496820     A.U. after   13 cycles
 SCF Done:  E(UM062X) =  -637.496498738     A.U. after    9 cycles
 SCF Done:  E(UM062X) =  -637.496498938     A.U. after    8 cycles
 Optimization completed.
    -- Stationary point found.

 1\1\GINC-BD22\FOpt\UM062X\def2TZVP\C11H22N1O2(2)\MIYAO\09-Jan-2025\0\\
 #p M062X/DEF2TZVP opt freq pop=NBO\\data_set_3-catalyst-Mix_15_opt\\0,
 2\O,-1.1520489086,0.6600041607,-1.7188609734\N,-0.9807266742,0.6029269
 146,-0.4615814019\C,-1.6933473469,-0.4956305392,0.2694831572\C,0.21151
 19431,1.3702853573,0.0160422489\C,-2.7274226622,-1.0819579171,-0.69181
 53714\C,-2.4486804081,0.0390209005,1.4905063371\C,0.2214096749,1.59974
 19919,1.5248798388\C,0.1057984507,2.748682138,-0.6510581546\H,-3.28532
 12207,-1.8522453485,-0.1585786679\H,-2.2637316889,-1.5222086367,-1.570

 Normal termination of Gaussian 16 at Thu Jan  9 15:27:54 2025.

 --------------------------------------------------------------------
 #P Geom=AllCheck Guess=TCheck SCRF=Check GenChk UM062X/def2TZVP Freq
 --------------------------------------------------------------------

 Structure from the checkpoint file:  "outputs/data_set_3-catalyst-Mix_15_opt.chk"
 ------------------------------
 data_set_3-catalyst-Mix_15_opt
 ------------------------------
 Charge =  0 Multiplicity = 2

                         Standard orientation:
 ---------------------------------------------------------------------
 Center     Atomic      Atomic             Coordinates (Angstroms)
 Number     Number       Type             X           Y           Z
 ---------------------------------------------------------------------
      1          8           0       -1.148832    0.648904   -1.728251
      2          7           0       -0.981010    0.599642   -0.470169
      3          6           0       -1.692878   -0.496484    0.265265
      4          6           0        0.207830    1.372916    0.006385
      5          6           0       -2.722625   -1.091147   -0.695559
      6          6           0       -2.453144    0.043323    1.480947
      7          6           0        0.212750    1.611231    1.513873
      8          6           0        0.100453    2.747099   -0.669090
      9          1           0       -3.280055   -1.859762   -0.159426
     10          1           0       -2.255238   -1.535317   -1.570328
     11          1           0       -3.415570   -0.325924   -1.041789
     12          1           0       -3.136031   -0.729450    1.836323
     13          1           0       -3.046652    0.914142    1.198868
     14          1           0       -1.808483    0.312840    2.311975
     15          1           0        0.223097    0.705067    2.111637
     16          1           0       -0.647112    2.212607    1.808856
     17          1           0        1.114990    2.174607    1.759462
     18          1           0       -0.874043    3.190769   -0.462376
     19          1           0        0.216772    2.659800   -1.746067
     20          1           0        0.876281    3.404254   -0.274922
     21          6           0       -0.690225   -1.591860    0.671995
     22          6           0        2.124306   -0.460579    0.291019
     23          6           0        1.526818    0.723513   -0.482080
     24          1           0       -1.276742   -2.434645    1.044993
     25          1           0       -0.096311   -1.252487    1.521766
     26          1           0        1.865835   -0.366582    1.350538
     27          1           0        1.409606    0.470380   -1.538963
     28          1           0        2.273260    1.522770   -0.441917
     29          6           0        0.225310   -2.026758   -0.485285
     30          6           0        1.713611   -1.841204   -0.210333
     31          1           0       -0.037095   -1.461569   -1.381984
     32          1           0        0.049200   -3.074084   -0.732851
     33          8           0        3.545350   -0.451345    0.178043
     34          1           0        2.275786   -2.020501   -1.130301
     35          1           0        2.065029   -2.574700    0.519491
     36          1           0        3.885158    0.349516    0.587054
 ---------------------------------------------------------------------

 SCF Done:  E(UM062X) =  -637.496498938     A.U. after    1 cycles

 The electronic state is 2-A.
 Alpha  occ. eigenvalues --  -19.62226 -19.61866 -14.83236 -10.59277 -10.58890
 Alpha  occ. eigenvalues --  -10.58744 -10.53980 -10.53852 -10.53556 -10.53238
 Alpha  occ. eigenvalues --  -10.52933 -10.52628 -10.52406 -10.52126  -1.22389
 Alpha  occ. eigenvalues --   -1.14598  -0.96975  -0.93347  -0.89561  -0.82573
 Alpha  occ. eigenvalues --   -0.81983  -0.79574  -0.78430  -0.77855  -0.72520
 Alpha  occ. eigenvalues --   -0.68375  -0.64838  -0.60192  -0.59985  -0.58150
 Alpha  occ. eigenvalues --   -0.56818  -0.56150  -0.53435  -0.52254  -0.50973
 Alpha  occ. eigenvalues --   -0.50025  -0.49264  -0.47729  -0.47394  -0.46869
 Alpha  occ. eigenvalues --   -0.45995  -0.45432  -0.45228  -0.43537  -0.43284
 Alpha  occ. eigenvalues --   -0.42865  -0.42141  -0.41135  -0.40725  -0.39231
 Alpha  occ. eigenvalues --   -0.38571  -0.38146  -0.36943  -0.34392  -0.33092
 Alpha  occ. eigenvalues --   -0.25571
 Alpha virt. eigenvalues --    0.04789   0.06418   0.07523   0.08204   0.08957
 Alpha virt. eigenvalues --    0.09743   0.10842   0.11233   0.12278   0.12707
 Alpha virt. eigenvalues --    0.12985   0.13493   0.14795   0.15320   0.15592

  Beta  occ. eigenvalues --  -19.62224 -19.60794 -14.82435 -10.59311 -10.58920
  Beta  occ. eigenvalues --  -10.58746 -10.53979 -10.53812 -10.53523 -10.53212
  Beta  occ. eigenvalues --  -10.52935 -10.52627 -10.52392 -10.52126  -1.19449
  Beta  occ. eigenvalues --   -1.14590  -0.95809  -0.93184  -0.89259  -0.82365
  Beta  occ. eigenvalues --   -0.80222  -0.79498  -0.78319  -0.77661  -0.72436
  Beta  occ. eigenvalues --   -0.67873  -0.64681  -0.60116  -0.59176  -0.56999
  Beta  occ. eigenvalues --   -0.55777  -0.54762  -0.53237  -0.52113  -0.50871
  Beta  occ. eigenvalues --   -0.49528  -0.47911  -0.47449  -0.46962  -0.45926
  Beta  occ. eigenvalues --   -0.45865  -0.45187  -0.44385  -0.43258  -0.43160
  Beta  occ. eigenvalues --   -0.42777  -0.40990  -0.40625  -0.39593  -0.38911
  Beta  occ. eigenvalues --   -0.37988  -0.37727  -0.36277  -0.34193  -0.31432
  Beta virt. eigenvalues --   -0.00364   0.04807   0.06410   0.07553   0.08312
  Beta virt. eigenvalues --    0.08982   0.09806   0.10857   0.11265   0.12289
  Beta virt. eigenvalues --    0.12833   0.13001   0.13516   0.14835   0.15331

 Mulliken charges and spin densities:
               1          2
     1  O   -0.387174   0.527800
     2  N    0.194759   0.465977
     3  C   -0.049014  -0.042578
     4  C    0.085353  -0.012603
     5  C   -0.399613  -0.005275
     6  C   -0.435738   0.023506
     7  C   -0.536970  -0.002549
     8  C   -0.428218  -0.005987
     9  H    0.137909  -0.001109
    10  H    0.164990   0.000128
    11  H    0.164513   0.000250
    12  H    0.153055   0.001535
    13  H    0.172533  -0.002966
    14  H    0.151153  -0.002695
    15  H    0.156777  -0.000613
    16  H    0.187986  -0.000990
    17  H    0.169060  -0.001164
    18  H    0.152333   0.000906
    19  H    0.180283   0.000289
    20  H    0.135740  -0.001555
    21  C   -0.289631   0.024456
    22  C    0.080797  -0.002317
    23  C   -0.461187   0.035398
    24  H    0.164898   0.005722
    25  H    0.144604  -0.002573
    26  H    0.145264   0.000818
    27  H    0.209384  -0.004216
    28  H    0.159128   0.000254
    29  C   -0.306104   0.009380
    30  C   -0.316053  -0.003723
    31  H    0.186408  -0.004066
    32  H    0.150271  -0.000154
    33  O   -0.457203   0.000273
    34  H    0.163549  -0.000045
    35  H    0.153956   0.000425
    36  H    0.302205   0.000060
 Sum of Mulliken charges =  -0.00000   1.00000

 Dipole moment (field-independent basis, Debye):
    X=             -0.3613    Y=              0.6372    Z=              3.2170  Tot=              3.2994
 Quadrupole moment (field-independent basis, Debye-Ang):
   XX=            -92.6814   YY=            -86.0084   ZZ=            -92.7677
   XY=              7.5995   XZ=             -1.0675   YZ=              2.6965

  Exact polarizability:     148.326       3.358     140.626      -0.629       0.953     127.141
 Approx polarizability:     167.547       3.332     164.868       1.396      -0.472     171.960

 Summary of Natural Population Analysis:

                                       Natural Population
                Natural  -----------------------------------------------
    Atom  No    Charge         Core      Valence    Rydberg      Total
 -----------------------------------------------------------------------
      O    1    0.04450      0.99993     2.95021    0.00536     3.95550
      N    2    0.24509      0.99971     2.23486    0.02034     3.25491
      C    3    0.04600      0.99965     1.94588    0.00846     2.95400
      C    4    0.04190      0.99964     1.94889    0.00957     2.95810
      C    5   -0.29868      0.99970     2.29179    0.00719     3.29868
      C    6   -0.30029      0.99970     2.29432    0.00627     3.30029
      C    7   -0.31073      0.99970     2.30410    0.00693     3.31073
      C    8   -0.29126      0.99971     2.28478    0.00677     3.29126
      H    9    0.09958      0.00000     0.39997    0.00046     0.40042
      H   10    0.11248      0.00000     0.38700    0.00052     0.38752
      H   11    0.11120      0.00000     0.38825    0.00054     0.38880
      H   12    0.10717      0.00000     0.39236    0.00047     0.39283
      H   13    0.10821      0.00000     0.39129    0.00050     0.39179
      H   14    0.10394      0.00000     0.39556    0.00050     0.39606
      H   15    0.10288      0.00000     0.39643    0.00068     0.39712
      H   16    0.10935      0.00000     0.39011    0.00053     0.39065
      H   17    0.10738      0.00000     0.39213    0.00050     0.39262
      H   18    0.10571      0.00000     0.39375    0.00055     0.39429
      H   19    0.11636      0.00000     0.38313    0.00052     0.38364
      H   20    0.09896      0.00000     0.40056    0.00048     0.40104
      C   21   -0.19891      0.99967     2.19141    0.00783     3.19891
      C   22    0.04776      0.99961     1.94381    0.00882     2.95224
      C   23   -0.20633      0.99965     2.19745    0.00923     3.20633
      H   24    0.11080      0.00000     0.38867    0.00053     0.38920
      H   25    0.09847      0.00000     0.40066    0.00087     0.40153
      H   26    0.07515      0.00000     0.42393    0.00092     0.42485
      H   27    0.11509      0.00000     0.38416    0.00075     0.38491
      H   28    0.10481      0.00000     0.39439    0.00080     0.39519
      C   29   -0.20991      0.99972     2.20319    0.00700     3.20991
      C   30   -0.19961      0.99970     2.19182    0.00808     3.19961
      H   31    0.10940      0.00000     0.38974    0.00087     0.39060
      H   32    0.10766      0.00000     0.39184    0.00050     0.39234
      O   33   -0.35409      0.99991     3.34838    0.00580     4.35409
      H   34    0.10885      0.00000     0.39049    0.00066     0.39115
      H   35    0.10261      0.00000     0.39679    0.00060     0.39739
      H   36    0.22851      0.00000     0.26953    0.00196     0.27149
 =======================================================================
   * Total *    0.50000     13.99601    40.87163    0.13235    55.00000

                      1                      2                      3
                      A                      A                      A
 Frequencies --     92.0830                99.7563               167.7592
 Red. masses --      3.5073                 5.3256                 2.6531
 Frc consts  --      0.0175                 0.0312                 0.0440
 IR Inten    --      1.1803                 3.1207                 0.6521

                      4                      5                      6
                      A                      A                      A
 Frequencies --    171.6903               180.5261               215.8963
 Red. masses --      1.9331                 1.6313                 3.2636
 Frc consts  --      0.0336                 0.0313                 0.0896
 IR Inten    --      0.3456                 0.3084                 0.4432

                      7                      8                      9
                      A                      A                      A
 Frequencies --    228.6533               255.5083               270.6825
 Red. masses --      2.3040                 2.0690                 1.3045
 Frc consts  --      0.0710                 0.0796                 0.0563
 IR Inten    --      0.8364                 2.2588                 0.4043

                     10                     11                     12
                      A                      A                      A
 Frequencies --    283.2140               290.4213               302.3160
 Red. masses --      2.3509                 2.2926                 1.5840
 Frc consts  --      0.1111                 0.1139                 0.0853
 IR Inten    --      3.2015                 0.4803                 4.1186

                     13                     14                     15
                      A                      A                      A
 Frequencies --    309.7066               316.0621               353.3721
 Red. masses --      1.1177                 1.7296                 2.1543
 Frc consts  --      0.0632                 0.1018                 0.1585
 IR Inten    --     75.1129                23.4896                 0.8611

                     16                     17                     18
                      A                      A                      A
 Frequencies --    368.8671               379.2505               408.8428
 Red. masses --      2.4780                 1.5880                 2.0177
 Frc consts  --      0.1987                 0.1346                 0.1987
 IR Inten    --      1.4373                 1.7518                 1.4987

                     19                     20                     21
                      A                      A                      A
 Frequencies --    426.0976               431.2434               449.2729
 Red. masses --      2.2990                 2.2091                 3.2531
 Frc consts  --      0.2459                 0.2421                 0.3869
 IR Inten    --      1.0666                 0.7988                16.4310

                     22                     23                     24
                      A                      A                      A
 Frequencies --    465.7492               496.6391               531.1840
 Red. masses --      2.4524                 2.6703                 2.9300
 Frc consts  --      0.3134                 0.3881                 0.4871
 IR Inten    --      2.6215                 0.9188                 1.6517

                     25                     26                     27
                      A                      A                      A
 Frequencies --    549.6303               572.5116               587.1133
 Red. masses --      2.9112                 3.6503                 3.5790
 Frc consts  --      0.5182                 0.7049                 0.7269
 IR Inten    --      3.3153                 7.1736                 7.2839

                     28                     29                     30
                      A                      A                      A
 Frequencies --    671.6886               766.4986               817.6181
 Red. masses --      3.4505                 1.4729                 2.4611
 Frc consts  --      0.9172                 0.5098                 0.9693
 IR Inten    --      5.2352                 5.1486                 0.6356

                     31                     32                     33
                      A                      A                      A
 Frequencies --    857.0921               877.4689               888.5489
 Red. masses --      2.3418                 2.1029                 2.0774
 Frc consts  --      1.0136                 0.9540                 0.9664
 IR Inten    --      2.5059                 3.1011                 6.3875

                     34                     35                     36
                      A                      A                      A
 Frequencies --    937.7090               954.1375               963.7894
 Red. masses --      2.0405                 1.5159                 1.3807
 Frc consts  --      1.0571                 0.8131                 0.7556
 IR Inten    --      2.2858                 1.8160                 1.0107

                     37                     38                     39
                      A                      A                      A
 Frequencies --    972.0821               984.6677              1005.8525
 Red. masses --      1.6379                 2.0651                 1.7075
 Frc consts  --      0.9119                 1.1797                 1.0178
 IR Inten    --      1.3950                 2.1659                 7.8060

                     40                     41                     42
                      A                      A                      A
 Frequencies --   1019.3541              1031.4831              1060.6650
 Red. masses --      1.5548                 1.4668                 2.0337
 Frc consts  --      0.9518                 0.9195                 1.3480
 IR Inten    --      0.8118                 4.3899                19.2921

                     43                     44                     45
                      A                      A                      A
 Frequencies --   1074.1260              1089.4800              1105.7582
 Red. masses --      2.1055                 2.5686                 2.0231
 Frc consts  --      1.4312                 1.7963                 1.4575
 IR Inten    --     19.7102                18.8472                37.4133

                     46                     47                     48
                      A                      A                      A
 Frequencies --   1140.1008              1158.0164              1172.2484
 Red. masses --      2.1368                 1.5155                 1.6011
 Frc consts  --      1.6364                 1.1974                 1.2963
 IR Inten    --      5.3093                14.5625                 2.9243

                     49                     50                     51
                      A                      A                      A
 Frequencies --   1204.0225              1211.9216              1225.8779
 Red. masses --      1.9605                 2.3031                 1.6760
 Frc consts  --      1.6745                 1.9930                 1.4839
 IR Inten    --     23.0790                 7.5215                45.1268

                     52                     53                     54
                      A                      A                      A
 Frequencies --   1249.3264              1253.7924              1268.1150
 Red. masses --      2.2320                 2.5058                 1.6744
 Frc consts  --      2.0525                 2.3208                 1.5865
 IR Inten    --      8.3082                 4.3886                 5.9791

                     55                     56                     57
                      A                      A                      A
 Frequencies --   1291.7983              1312.5809              1324.8788
 Red. masses --      1.7476                 1.5946                 1.2969
 Frc consts  --      1.7182                 1.6187                 1.3412
 IR Inten    --     23.2279                19.7951                 3.8451

                     58                     59                     60
                      A                      A                      A
 Frequencies --   1341.7932              1349.0509              1370.8691
 Red. masses --      1.4442                 1.3026                 1.3123
 Frc consts  --      1.5320                 1.3968                 1.4531
 IR Inten    --      9.1374                 3.4376                 4.1958

                     61                     62                     63
                      A                      A                      A
 Frequencies --   1399.3863              1404.7037              1411.8128
 Red. masses --      1.3036                 1.3384                 1.3211
 Frc consts  --      1.5040                 1.5560                 1.5514
 IR Inten    --     13.3884                 9.9403                 1.0259

                     64                     65                     66
                      A                      A                      A
 Frequencies --   1417.9877              1424.8062              1425.2641
 Red. masses --      1.3236                 1.3103                 1.2990
 Frc consts  --      1.5680                 1.5673                 1.5547
 IR Inten    --     10.5369                12.5173                18.3900

                     67                     68                     69
                      A                      A                      A
 Frequencies --   1445.4596              1463.4487              1475.7210
 Red. masses --      1.5774                 4.1699                 1.0987
 Frc consts  --      1.9418                 5.2617                 1.4098
 IR Inten    --      6.6119                 1.0781                 1.3133

                     70                     71                     72
                      A                      A                      A
 Frequencies --   1479.5457              1481.6919              1487.4363
 Red. masses --      1.0564                 1.0843                 1.0678
 Frc consts  --      1.3625                 1.4025                 1.3919
 IR Inten    --      1.4609                 5.9471                 4.0264

                     73                     74                     75
                      A                      A                      A
 Frequencies --   1492.9481              1495.6748              1497.3144
 Red. masses --      1.0957                 1.0595                 1.0631
 Frc consts  --      1.4390                 1.3965                 1.4043
 IR Inten    --      2.5278                 2.7309                 1.2261

                     76                     77                     78
                      A                      A                      A
 Frequencies --   1505.9977              1513.4020              1517.5029
 Red. masses --      1.0689                 1.0864                 1.0587
 Frc consts  --      1.4284                 1.4661                 1.4364
 IR Inten    --      1.7198                 7.5258                16.6407

                     79                     80                     81
                      A                      A                      A
 Frequencies --   1518.2794              1537.8045              3051.0771
 Red. masses --      1.0856                 1.0561                 1.0767
 Frc consts  --      1.4744                 1.4716                 5.9055
 IR Inten    --      8.8135                 7.5671                 9.2267

                     82                     83                     84
                      A                      A                      A
 Frequencies --   3054.2233              3062.5656              3072.1782
 Red. masses --      1.0684                 1.0606                 1.0395
 Frc consts  --      5.8721                 5.8609                 5.7807
 IR Inten    --     25.0113                24.9463                 5.5793

                     85                     86                     87
                      A                      A                      A
 Frequencies --   3074.9360              3075.0712              3078.2269
 Red. masses --      1.0505                 1.0474                 1.0438
 Frc consts  --      5.8522                 5.8356                 5.8274
 IR Inten    --     15.6318                 3.4501                31.8986

                     88                     89                     90
                      A                      A                      A
 Frequencies --   3081.9044              3084.9838              3104.5906
 Red. masses --      1.0513                 1.0544                 1.1009
 Frc consts  --      5.8830                 5.9122                 6.2518
 IR Inten    --     13.7468                22.7252                 6.4870

                     91                     92                     93
                      A                      A                      A
 Frequencies --   3106.6643              3118.5217              3124.1426
 Red. masses --      1.0995                 1.0965                 1.1030
 Frc consts  --      6.2521                 6.2831                 6.3431
 IR Inten    --     10.9365                30.9716                24.9603

                     94                     95                     96
                      A                      A                      A
 Frequencies --   3137.8790              3139.4406              3147.0044
 Red. masses --      1.1015                 1.1014                 1.1025
 Frc consts  --      6.3899                 6.3958                 6.4329
 IR Inten    --      9.5919                 6.2034                31.5047

                     97                     98                     99
                      A                      A                      A
 Frequencies --   3156.0518              3177.5391              3179.5582
 Red. masses --      1.1014                 1.1012                 1.1008
 Frc consts  --      6.4636                 6.5509                 6.5571
 IR Inten    --     17.2861                 9.6791                 5.9978

                    100                    101                    102
                      A                      A                      A
 Frequencies --   3183.8765              3195.4481              3873.8804
 Red. masses --      1.0985                 1.0944                 1.0664
 Frc consts  --      6.5607                 6.5839                 9.4293
 IR Inten    --     10.6949                20.1471                27.7518

 - Thermochemistry -
 -------------------
 Temperature   298.150 Kelvin.  Pressure   1.00000 Atm.
 Atom     1 has atomic number  8 and mass  15.99491

 Molecular mass:   200.16505 amu.
 Principal axes and moments of inertia in atomic units:
                           1         2         3
     Eigenvalues --  1981.797072917.370133686.38961
           X            0.99925   0.03665  -0.01277
           Y           -0.03636   0.99910   0.02186
           Z            0.01356  -0.02138   0.99968
 This molecule is an asymmetric top.
 Rotational symmetry number  1.
 Warning -- assumption of classical behavior for rotation
           may cause significant error
 Rotational temperatures (Kelvin)      0.04370     0.02969     0.02350
 Rotational constants (GHZ):           0.91066     0.61862     0.48957
 Zero-point vibrational energy     860308.9 (Joules/Mol)
                                  205.61876 (Kcal/Mol)
 Warning -- explicit consideration of  27 degrees of freedom as
           vibrations may cause significant error
 Vibrational temperatures:    132.49   143.53   241.37   247.02   259.74
          (Kelvin)            310.63   328.98   367.62   389.45   407.48
                              417.85   434.97   445.60   454.74   508.42
                              530.72   545.66   588.23   613.06   620.46
                              646.40   670.11   714.55   764.26   790.80
                              823.72   844.73   966.41  1102.82  1176.37
                             1233.16  1262.48  1278.42  1349.15  1372.79
                             1386.68  1398.61  1416.72  1447.20  1466.62
                             1484.07  1526.06  1545.43  1567.52  1590.94
                             1640.35  1666.13  1686.60  1732.32  1743.68
                             1763.76  1797.50  1803.93  1824.53  1858.61
                             1888.51  1906.21  1930.54  1940.98  1972.37
                             2013.40  2021.06  2031.28  2040.17  2049.98
                             2050.64  2079.69  2105.58  2123.23  2128.74
                             2131.82  2140.09  2148.02  2151.94  2154.30
                             2166.79  2177.45  2183.35  2184.47  2212.56
                             4389.82  4394.35  4406.35  4420.18  4424.15
                             4424.34  4428.88  4434.17  4438.60  4466.81
                             4469.80  4486.86  4494.94  4514.71  4516.95
                             4527.84  4540.85  4571.77  4574.68  4580.89
                             4597.54  5573.65

 Zero-point correction=                           0.327674 (Hartree/Particle)
 Thermal correction to Energy=                    0.342472
 Thermal correction to Enthalpy=                  0.343417
 Thermal correction to Gibbs Free Energy=         0.288082
 Sum of electronic and zero-point Energies=           -637.168825
 Sum of electronic and thermal Energies=              -637.154026
 Sum of electronic and thermal Enthalpies=            -637.153082
 Sum of electronic and thermal Free Energies=         -637.208417

                     E (Thermal)             CV                S
                      KCal/Mol        Cal/Mol-Kelvin    Cal/Mol-Kelvin
 Total                  214.905             60.722            116.462
 Electronic               0.000              0.000              1.377
 Translational            0.889              2.981             41.787
 Rotational               0.889              2.981             31.433
 Vibrational            213.127             54.760             41.865
 Vibration     1          0.602              1.955              3.615
 Vibration     2          0.604              1.949              3.459
 Vibration     3          0.624              1.882              2.460
 Vibration     4          0.626              1.877              2.417
 Vibration     5          0.629              1.866              2.323
 Vibration     6          0.645              1.817              1.993
 Vibration     7          0.651              1.797              1.889
 Vibration     8          0.666              1.753              1.692
 Vibration     9          0.674              1.727              1.592
 Vibration    10          0.682              1.705              1.514
 Vibration    11          0.686              1.692              1.472
 Vibration    12          0.694              1.669              1.404
 Vibration    13          0.699              1.655              1.364
 Vibration    14          0.703              1.643              1.330
 Vibration    15          0.730              1.568              1.151
 Vibration    16          0.741              1.536              1.084
 Vibration    17          0.749              1.514              1.042
 Vibration    18          0.773              1.451              0.931
 Vibration    19          0.788              1.413              0.871
 Vibration    20          0.792              1.402              0.855
 Vibration    21          0.808              1.362              0.798
 Vibration    22          0.823              1.326              0.750
 Vibration    23          0.852              1.257              0.667
 Vibration    24          0.886              1.181              0.585
 Vibration    25          0.905              1.140              0.545
 Vibration    26          0.929              1.091              0.499
 Vibration    27          0.944              1.059              0.472

 Optimization completed.
    -- Stationary point found.

 1\1\GINC-BD22\Freq\UM062X\def2TZVP\C11H22N1O2(2)\MIYAO\09-Jan-2025\0\\
 #P Geom=AllCheck Guess=TCheck SCRF=Check GenChk UM062X/def2TZVP Freq\\
 data_set_3-catalyst-Mix_15_opt\\0,2\O,-1.1520489086,0.6600041607,-1.71
 88609734\N,-0.9807266742,0.6029269146,-0.4615814019\C,-1.6933473469,-0
 .4956305392,0.2694831572\C,0.2115119431,1.3702853573,0.0160422489\C,-2
 .7274226622,-1.0819579171,-0.6918153714\C,-2.4486804081,0.0390209005,1
 .4905063371\C,0.2214096749,1.5997419919,1.5248798388\C,0.1057984507,2.
 748682138,-0.6510581546\H,-3.2853212207,-1.8522453485,-0.1585786679\H,

 Normal termination of Gaussian 16 at Thu Jan  9 17:17:53 2025.
