 Gaussian 16, Revision C.01,
 Gaussian 16:  ES64L-G16RevC.01  3-Jul-2019

 ----------------------------------
 #p M062X/DEF2TZVP opt freq pop=NBO
 ----------------------------------

 ------------------------------
 data_set_3-catalyst-Mix_10_opt
 ------------------------------
 Symbolic Z-matrix:
 Charge =  0 Multiplicity = 2

 SCF Done:  E(UM062X) =  -596.989081759     A.U. after   17 cycles
 SCF Done:  E(UM062X) =  -596.995367062     A.U. after   13 cycles
 SCF Done:  E(UM062X) =  -596.995625500     A.U. after   12 cycles
 SCF Done:  E(UM062X) =  -596.995660362     A.U. after   12 cycles
 SCF Done:  E(UM062X) =  -596.995693277     A.U. after   12 cycles
 SCF Done:  E(UM062X) =  -596.995715784     A.U. after   12 cycles
 SCF Done:  E(UM062X) =  -596.995745136     A.U. after   12 cycles
 SCF Done:  E(UM062X) =  -596.995772727     A.U. after   14 cycles
 SCF Done:  E(UM062X) =  -596.995781635     A.U. after   12 cycles
 SCF Done:  E(UM062X) =  -596.995841047     A.U. after   13 cycles
 SCF Done:  E(UM062X) =  -596.996018279     A.U. after   13 cycles
 SCF Done:  E(UM062X) =  -596.995644592     A.U. after   15 cycles
 SCF Done:  E(UM062X) =  -596.996171616     A.U. after   13 cycles
 SCF Done:  E(UM062X) =  -596.996220018     A.U. after   12 cycles
 SCF Done:  E(UM062X) =  -596.996228101     A.U. after   11 cycles
 SCF Done:  E(UM062X) =  -596.996235527     A.U. after   11 cycles
 SCF Done:  E(UM062X) =  -596.996239200     A.U. after   11 cycles
 SCF Done:  E(UM062X) =  -596.996242424     A.U. after   11 cycles
 SCF Done:  E(UM062X) =  -596.996243381     A.U. after   10 cycles
 Optimization completed.
    -- Stationary point found.

 1\1\GINC-BD21\FOpt\UM062X\def2TZVP\C10H18N1O2(2)\MIYAO\09-Jan-2025\0\\
 #p M062X/DEF2TZVP opt freq pop=NBO\\data_set_3-catalyst-Mix_10_opt\\0,
 2\O,1.3772529996,1.5205234185,-1.0484288434\N,0.6761388793,0.652270048
 5,-0.444703944\C,-0.6330820534,1.1886842089,0.0505294422\C,0.613662659
 5,-1.8480840101,-0.5290661913\C,1.3679710866,-0.6071995898,-0.01871816
 9\C,-1.3554708977,1.7722651442,-1.1651874918\C,-0.3332385785,2.2939823
 471,1.0655177421\C,2.7391011085,-0.618320436,-0.695284775\C,1.59150903
 54,-0.6251067263,1.4966403924\H,1.2832033682,-2.700727654,-0.398094134

 Normal termination of Gaussian 16 at Thu Jan  9 10:42:09 2025.

 --------------------------------------------------------------------
 #P Geom=AllCheck Guess=TCheck SCRF=Check GenChk UM062X/def2TZVP Freq
 --------------------------------------------------------------------

 Structure from the checkpoint file:  "outputs/data_set_3-catalyst-Mix_10_opt.chk"
 ------------------------------
 data_set_3-catalyst-Mix_10_opt
 ------------------------------
 Charge =  0 Multiplicity = 2

                         Standard orientation:
 ---------------------------------------------------------------------
 Center     Atomic      Atomic             Coordinates (Angstroms)
 Number     Number       Type             X           Y           Z
 ---------------------------------------------------------------------
      1          8           0        1.056594    1.739346   -1.035874
      2          7           0        0.538677    0.775982   -0.392756
      3          6           0       -0.818495    1.093982    0.158621
      4          6           0        0.892620   -1.700684   -0.453094
      5          6           0        1.450227   -0.343137    0.010986
      6          6           0       -1.682100    1.528973   -1.026853
      7          6           0       -0.663174    2.250054    1.149159
      8          6           0        2.772189   -0.135875   -0.728828
      9          6           0        1.741091   -0.299016    1.514333
     10          1           0        1.700821   -2.427229   -0.346409
     11          1           0        0.676907   -1.621623   -1.521631
     12          1           0       -2.657134    1.855533   -0.664204
     13          1           0       -1.835666    0.702019   -1.720117
     14          1           0       -1.200190    2.350320   -1.550732
     15          1           0       -1.642827    2.552070    1.522009
     16          1           0       -0.196670    3.097392    0.649520
     17          1           0       -0.045085    1.956675    1.999209
     18          1           0        3.229913    0.811663   -0.457744
     19          1           0        2.621190   -0.139687   -1.806924
     20          1           0        3.446358   -0.949428   -0.459758
     21          1           0        2.453490   -1.087437    1.764834
     22          1           0        0.861507   -0.440284    2.136812
     23          1           0        2.191503    0.660505    1.770863
     24          6           0       -1.511082   -0.079400    0.876465
     25          6           0       -1.527364   -1.367138    0.084139
     26          6           0       -0.335803   -2.272130    0.259670
     27          8           0       -2.426732   -1.631681   -0.673055
     28          1           0       -2.546639    0.226221    1.025478
     29          1           0       -1.069512   -0.249141    1.857023
     30          1           0       -0.580804   -3.242641   -0.169301
     31          1           0       -0.125455   -2.401903    1.324205
 ---------------------------------------------------------------------

 SCF Done:  E(UM062X) =  -596.996243381     A.U. after    1 cycles

 The electronic state is 2-A.
 Alpha  occ. eigenvalues --  -19.62507 -19.62413 -14.83889 -10.63290 -10.60061
 Alpha  occ. eigenvalues --  -10.59955 -10.55596 -10.55276 -10.55100 -10.54413
 Alpha  occ. eigenvalues --  -10.53264 -10.52870 -10.52159  -1.23009  -1.17872
 Alpha  occ. eigenvalues --   -0.97940  -0.94106  -0.88721  -0.82928  -0.81990
 Alpha  occ. eigenvalues --   -0.79923  -0.78745  -0.74739  -0.69354  -0.63483
 Alpha  occ. eigenvalues --   -0.60779  -0.59102  -0.57504  -0.56778  -0.55574
 Alpha  occ. eigenvalues --   -0.52920  -0.52712  -0.51923  -0.50121  -0.48939
 Alpha  occ. eigenvalues --   -0.47924  -0.47200  -0.46867  -0.46078  -0.45256
 Alpha  occ. eigenvalues --   -0.44880  -0.44298  -0.43601  -0.42404  -0.41158
 Alpha  occ. eigenvalues --   -0.40543  -0.40203  -0.39191  -0.33781  -0.32457
 Alpha  occ. eigenvalues --   -0.26163
 Alpha virt. eigenvalues --    0.00978   0.05482   0.07353   0.07854   0.08728
 Alpha virt. eigenvalues --    0.09757   0.10846   0.11587   0.11974   0.12643
 Alpha virt. eigenvalues --    0.13563   0.14129   0.15003   0.15426   0.15750

  Beta  occ. eigenvalues --  -19.62508 -19.61322 -14.83089 -10.63291 -10.60095
  Beta  occ. eigenvalues --  -10.59987 -10.55569 -10.55276 -10.55101 -10.54377
  Beta  occ. eigenvalues --  -10.53234 -10.52870 -10.52142  -1.20042  -1.17870
  Beta  occ. eigenvalues --   -0.96828  -0.93934  -0.88282  -0.82206  -0.80791
  Beta  occ. eigenvalues --   -0.79774  -0.78601  -0.74554  -0.68891  -0.63283
  Beta  occ. eigenvalues --   -0.59824  -0.58851  -0.57019  -0.55390  -0.54116
  Beta  occ. eigenvalues --   -0.52660  -0.52025  -0.51262  -0.49946  -0.47712
  Beta  occ. eigenvalues --   -0.47343  -0.47031  -0.46735  -0.45884  -0.45152
  Beta  occ. eigenvalues --   -0.44211  -0.43537  -0.42765  -0.42269  -0.40427
  Beta  occ. eigenvalues --   -0.40035  -0.39316  -0.37545  -0.32431  -0.32066
  Beta virt. eigenvalues --   -0.00810   0.01357   0.05461   0.07371   0.07858
  Beta virt. eigenvalues --    0.08821   0.09918   0.10898   0.11653   0.12031
  Beta virt. eigenvalues --    0.12720   0.13603   0.14185   0.15132   0.15503

 Mulliken charges and spin densities:
               1          2
     1  O   -0.387420   0.538681
     2  N    0.200940   0.455013
     3  C   -0.013259   0.007874
     4  C   -0.326984   0.040754
     5  C    0.016589  -0.058116
     6  C   -0.433680  -0.003856
     7  C   -0.426694   0.018000
     8  C   -0.411032  -0.003999
     9  C   -0.489666   0.025641
    10  H    0.160611   0.002184
    11  H    0.187368  -0.006606
    12  H    0.139536  -0.001225
    13  H    0.168841   0.000494
    14  H    0.179636  -0.001128
    15  H    0.150013  -0.000307
    16  H    0.183400  -0.002246
    17  H    0.146937   0.000878
    18  H    0.169786  -0.000365
    19  H    0.168488   0.000554
    20  H    0.138562  -0.001043
    21  H    0.165560   0.003843
    22  H    0.145046  -0.001516
    23  H    0.182633  -0.001949
    24  C   -0.380921  -0.011691
    25  C    0.256825   0.016656
    26  C   -0.325817  -0.012573
    27  O   -0.278080  -0.002610
    28  H    0.181605  -0.000834
    29  H    0.185546  -0.000805
    30  H    0.162276   0.000146
    31  H    0.183353   0.000151
 Sum of Mulliken charges =  -0.00000   1.00000

 Dipole moment (field-independent basis, Debye):
    X=              1.4393    Y=             -1.2048    Z=              3.2136  Tot=              3.7216
 Quadrupole moment (field-independent basis, Debye-Ang):
   XX=            -85.7092   YY=            -83.2655   ZZ=            -81.5697
   XY=             -9.5158   XZ=             -2.1297   YZ=              0.7910

  Exact polarizability:     133.190      -1.617     128.520       1.039      -0.184     112.398
 Approx polarizability:     155.434       2.360     152.603       2.303      -2.864     147.465

 Summary of Natural Population Analysis:

                                       Natural Population
                Natural  -----------------------------------------------
    Atom  No    Charge         Core      Valence    Rydberg      Total
 -----------------------------------------------------------------------
      O    1    0.05293      0.99993     2.94181    0.00532     3.94707
      N    2    0.24168      0.99972     2.23818    0.02041     3.25832
      C    3    0.05117      0.99964     1.94017    0.00902     2.94883
      C    4   -0.18994      0.99966     2.18275    0.00753     3.18994
      C    5    0.03816      0.99965     1.95455    0.00765     2.96184
      C    6   -0.29864      0.99970     2.29219    0.00675     3.29864
      C    7   -0.29230      0.99970     2.28621    0.00640     3.29230
      C    8   -0.29420      0.99971     2.28738    0.00712     3.29420
      C    9   -0.30120      0.99969     2.29475    0.00676     3.30120
      H   10    0.10921      0.00000     0.39017    0.00061     0.39079
      H   11    0.10899      0.00000     0.39029    0.00072     0.39101
      H   12    0.10252      0.00000     0.39702    0.00046     0.39748
      H   13    0.11171      0.00000     0.38777    0.00051     0.38829
      H   14    0.11684      0.00000     0.38260    0.00056     0.38316
      H   15    0.10486      0.00000     0.39467    0.00046     0.39514
      H   16    0.11598      0.00000     0.38349    0.00053     0.38402
      H   17    0.10166      0.00000     0.39783    0.00051     0.39834
      H   18    0.11370      0.00000     0.38576    0.00054     0.38630
      H   19    0.11189      0.00000     0.38761    0.00050     0.38811
      H   20    0.09986      0.00000     0.39970    0.00045     0.40014
      H   21    0.10973      0.00000     0.38982    0.00045     0.39027
      H   22    0.10078      0.00000     0.39858    0.00064     0.39922
      H   23    0.11063      0.00000     0.38883    0.00054     0.38937
      C   24   -0.26226      0.99962     2.25382    0.00881     3.26226
      C   25    0.30260      0.99971     1.68260    0.01509     2.69740
      C   26   -0.25345      0.99967     2.24620    0.00758     3.25345
      O   27   -0.26582      0.99989     3.25184    0.01409     4.26582
      H   28    0.12063      0.00000     0.37872    0.00065     0.37937
      H   29    0.10714      0.00000     0.39219    0.00067     0.39286
      H   30    0.11874      0.00000     0.38056    0.00070     0.38126
      H   31    0.10637      0.00000     0.39302    0.00061     0.39363
 =======================================================================
   * Total *    0.50000     12.99628    36.87108    0.13264    50.00000

                      1                      2                      3
                      A                      A                      A
 Frequencies --     44.0872                90.8368               125.3519
 Red. masses --      5.2800                 4.6298                 4.1350
 Frc consts  --      0.0060                 0.0225                 0.0383
 IR Inten    --      4.2684                 2.0199                 2.5096

                      4                      5                      6
                      A                      A                      A
 Frequencies --    166.6792               189.8095               228.1606
 Red. masses --      2.0736                 1.7639                 1.3368
 Frc consts  --      0.0339                 0.0374                 0.0410
 IR Inten    --      1.1914                 0.9199                 0.4766

                      7                      8                      9
                      A                      A                      A
 Frequencies --    240.3251               266.9221               272.1585
 Red. masses --      1.6995                 1.2833                 1.7366
 Frc consts  --      0.0578                 0.0539                 0.0758
 IR Inten    --      0.9793                 0.4866                 0.6185

                     10                     11                     12
                      A                      A                      A
 Frequencies --    286.9754               312.5171               322.2255
 Red. masses --      2.4639                 2.7511                 1.1418
 Frc consts  --      0.1196                 0.1583                 0.0698
 IR Inten    --      0.2990                 0.2096                 0.1965

                     13                     14                     15
                      A                      A                      A
 Frequencies --    335.3923               336.9216               363.8987
 Red. masses --      2.6596                 2.6592                 2.5193
 Frc consts  --      0.1763                 0.1779                 0.1966
 IR Inten    --      1.4129                 0.3709                 0.6268

                     16                     17                     18
                      A                      A                      A
 Frequencies --    399.2492               435.9175               441.8244
 Red. masses --      2.7862                 2.8793                 3.2597
 Frc consts  --      0.2617                 0.3224                 0.3749
 IR Inten    --      0.2535                 3.0232                 7.2413

                     19                     20                     21
                      A                      A                      A
 Frequencies --    476.7138               521.7186               543.9020
 Red. masses --      2.1533                 3.7442                 3.1110
 Frc consts  --      0.2883                 0.6005                 0.5422
 IR Inten    --      6.7918                16.4057                 6.3714

                     22                     23                     24
                      A                      A                      A
 Frequencies --    558.4685               578.5137               637.2046
 Red. masses --      2.3996                 3.4977                 3.9122
 Frc consts  --      0.4410                 0.6897                 0.9359
 IR Inten    --      3.1075                 0.7646                 2.4071

                     25                     26                     27
                      A                      A                      A
 Frequencies --    723.4485               794.7083               814.9374
 Red. masses --      3.1029                 2.2419                 2.6312
 Frc consts  --      0.9568                 0.8342                 1.0296
 IR Inten    --      1.1808                 1.1648                 4.0237

                     28                     29                     30
                      A                      A                      A
 Frequencies --    867.5384               911.6265               926.1191
 Red. masses --      2.2906                 2.2076                 2.0887
 Frc consts  --      1.0157                 1.0809                 1.0555
 IR Inten    --      1.7947                 1.4316                 0.8718

                     31                     32                     33
                      A                      A                      A
 Frequencies --    948.1763               955.9993               960.0983
 Red. masses --      1.7370                 1.4583                 1.4625
 Frc consts  --      0.9201                 0.7852                 0.7943
 IR Inten    --      2.2404                 1.1171                 0.3784

                     34                     35                     36
                      A                      A                      A
 Frequencies --    979.3671              1008.5970              1029.9455
 Red. masses --      2.1952                 1.4378                 1.3437
 Frc consts  --      1.2406                 0.8618                 0.8398
 IR Inten    --      0.6693                 0.5876                 0.2064

                     37                     38                     39
                      A                      A                      A
 Frequencies --   1046.4716              1061.5461              1077.4156
 Red. masses --      1.6716                 1.8036                 2.4337
 Frc consts  --      1.0785                 1.1975                 1.6645
 IR Inten    --      1.7856                 8.7270                 2.3386

                     40                     41                     42
                      A                      A                      A
 Frequencies --   1105.6351              1160.3589              1186.0766
 Red. masses --      1.5048                 1.5126                 2.1377
 Frc consts  --      1.0838                 1.1999                 1.7718
 IR Inten    --      5.9365                 7.4843                 3.2514

                     43                     44                     45
                      A                      A                      A
 Frequencies --   1204.6837              1237.0261              1244.0343
 Red. masses --      2.2751                 2.6324                 2.4297
 Frc consts  --      1.9453                 2.3733                 2.2155
 IR Inten    --     49.6878                 4.7135                 4.0249

                     46                     47                     48
                      A                      A                      A
 Frequencies --   1265.0571              1277.2442              1284.3798
 Red. masses --      2.6753                 1.9530                 1.5653
 Frc consts  --      2.5225                 1.8771                 1.5214
 IR Inten    --     28.4124                24.3696                 1.4896

                     49                     50                     51
                      A                      A                      A
 Frequencies --   1307.0273              1350.3195              1370.9785
 Red. masses --      1.8482                 1.7009                 1.4451
 Frc consts  --      1.8603                 1.8273                 1.6003
 IR Inten    --      5.6017                37.4934                15.3066

                     52                     53                     54
                      A                      A                      A
 Frequencies --   1390.8499              1394.4613              1400.7515
 Red. masses --      1.5138                 1.2774                 1.3151
 Frc consts  --      1.7254                 1.4635                 1.5203
 IR Inten    --      9.6481                13.0414                11.7158

                     55                     56                     57
                      A                      A                      A
 Frequencies --   1415.7720              1424.8942              1466.0935
 Red. masses --      1.3045                 1.2651                 3.6686
 Frc consts  --      1.5406                 1.5133                 4.6460
 IR Inten    --     10.1036                16.5280                 1.4242

                     58                     59                     60
                      A                      A                      A
 Frequencies --   1471.0992              1475.5518              1476.3961
 Red. masses --      1.1282                 1.1244                 1.0817
 Frc consts  --      1.4385                 1.4424                 1.3892
 IR Inten    --      1.0443                 1.0574                 6.1083

                     61                     62                     63
                      A                      A                      A
 Frequencies --   1485.2508              1489.7814              1492.7975
 Red. masses --      1.0635                 1.0947                 1.0551
 Frc consts  --      1.3822                 1.4315                 1.3853
 IR Inten    --      0.1895                14.5268                 3.1581

                     64                     65                     66
                      A                      A                      A
 Frequencies --   1495.6878              1498.1154              1510.9183
 Red. masses --      1.0676                 1.0641                 1.0665
 Frc consts  --      1.4072                 1.4071                 1.4345
 IR Inten    --      7.9931                 4.6898                 5.7500

                     67                     68                     69
                      A                      A                      A
 Frequencies --   1515.2479              1517.6493              1844.6835
 Red. masses --      1.0838                 1.0690                10.9754
 Frc consts  --      1.4662                 1.4507                22.0046
 IR Inten    --      6.9126                18.9737               205.7054

                     70                     71                     72
                      A                      A                      A
 Frequencies --   3066.6186              3067.5816              3072.8496
 Red. masses --      1.0598                 1.0350                 1.0401
 Frc consts  --      5.8722                 5.7383                 5.7867
 IR Inten    --      9.9547                14.0938                 6.9557

                     73                     74                     75
                      A                      A                      A
 Frequencies --   3076.4460              3079.1624              3084.3133
 Red. masses --      1.0628                 1.0366                 1.0384
 Frc consts  --      5.9265                 5.7908                 5.8202
 IR Inten    --      6.3977                11.7514                19.1334

                     76                     77                     78
                      A                      A                      A
 Frequencies --   3103.1140              3114.6686              3138.3355
 Red. masses --      1.0606                 1.1019                 1.1021
 Frc consts  --      6.0172                 6.2982                 6.3953
 IR Inten    --      6.8464                11.6357                19.5050

                     79                     80                     81
                      A                      A                      A
 Frequencies --   3140.3237              3144.5782              3149.6056
 Red. masses --      1.1021                 1.1018                 1.1039
 Frc consts  --      6.4036                 6.4189                 6.4519
 IR Inten    --      4.9707                 6.1357                10.0750

                     82                     83                     84
                      A                      A                      A
 Frequencies --   3152.4501              3159.2041              3163.0200
 Red. masses --      1.1030                 1.1018                 1.1025
 Frc consts  --      6.4586                 6.4791                 6.4987
 IR Inten    --     22.1759                13.8209                 4.2503

                     85                     86                     87
                      A                      A                      A
 Frequencies --   3180.7298              3181.5601              3187.1158
 Red. masses --      1.1021                 1.1019                 1.0941
 Frc consts  --      6.5697                 6.5714                 6.5478
 IR Inten    --      8.7515                 4.2801                16.7992

 - Thermochemistry -
 -------------------
 Temperature   298.150 Kelvin.  Pressure   1.00000 Atm.
 Atom     1 has atomic number  8 and mass  15.99491

 Molecular mass:   184.13375 amu.
 Principal axes and moments of inertia in atomic units:
                           1         2         3
     Eigenvalues --  1839.222112119.664022975.44666
           X            0.96579  -0.25931  -0.00013
           Y            0.25930   0.96573   0.01152
           Z           -0.00287  -0.01116   0.99993
 This molecule is an asymmetric top.
 Rotational symmetry number  1.
 Warning -- assumption of classical behavior for rotation
           may cause significant error
 Rotational temperatures (Kelvin)      0.04709     0.04086     0.02911
 Rotational constants (GHZ):           0.98125     0.85143     0.60654
 Zero-point vibrational energy     719567.4 (Joules/Mol)
                                  171.98073 (Kcal/Mol)
 Warning -- explicit consideration of  23 degrees of freedom as
           vibrations may cause significant error
 Vibrational temperatures:     63.43   130.69   180.35   239.81   273.09
          (Kelvin)            328.27   345.77   384.04   391.58   412.89
                              449.64   463.61   482.55   484.76   523.57
                              574.43   627.19   635.69   685.88   750.64
                              782.55   803.51   832.35   916.80  1040.88
                             1143.41  1172.51  1248.19  1311.63  1332.48
                             1364.21  1375.47  1381.37  1409.09  1451.15
                             1481.86  1505.64  1527.33  1550.16  1590.76
                             1669.50  1706.50  1733.27  1779.80  1789.89
                             1820.13  1837.67  1847.94  1880.52  1942.81
                             1972.53  2001.12  2006.32  2015.37  2036.98
                             2050.10  2109.38  2116.58  2122.99  2124.20
                             2136.94  2143.46  2147.80  2151.96  2155.45
                             2173.87  2180.10  2183.56  2654.09  4412.18
                             4413.57  4421.15  4426.32  4430.23  4437.64
                             4464.69  4481.31  4515.36  4518.23  4524.35
                             4531.58  4535.67  4545.39  4550.88  4576.36
                             4577.56  4585.55

 Zero-point correction=                           0.274069 (Hartree/Particle)
 Thermal correction to Energy=                    0.287667
 Thermal correction to Enthalpy=                  0.288611
 Thermal correction to Gibbs Free Energy=         0.234789
 Sum of electronic and zero-point Energies=           -596.722175
 Sum of electronic and thermal Energies=              -596.708576
 Sum of electronic and thermal Enthalpies=            -596.707632
 Sum of electronic and thermal Free Energies=         -596.761454

                     E (Thermal)             CV                S
                      KCal/Mol        Cal/Mol-Kelvin    Cal/Mol-Kelvin
 Total                  180.514             53.917            113.278
 Electronic               0.000              0.000              1.377
 Translational            0.889              2.981             41.538
 Rotational               0.889              2.981             30.829
 Vibrational            178.736             47.955             39.534
 Vibration     1          0.595              1.980              5.066
 Vibration     2          0.602              1.956              3.642
 Vibration     3          0.610              1.928              3.016
 Vibration     4          0.624              1.883              2.473
 Vibration     5          0.633              1.854              2.230
 Vibration     6          0.651              1.798              1.893
 Vibration     7          0.657              1.779              1.800
 Vibration     8          0.672              1.734              1.616
 Vibration     9          0.675              1.725              1.582
 Vibration    10          0.684              1.698              1.492
 Vibration    11          0.701              1.650              1.349
 Vibration    12          0.707              1.631              1.299
 Vibration    13          0.717              1.605              1.234
 Vibration    14          0.718              1.602              1.227
 Vibration    15          0.737              1.547              1.105
 Vibration    16          0.765              1.472              0.965
 Vibration    17          0.796              1.392              0.840
 Vibration    18          0.802              1.379              0.821
 Vibration    19          0.833              1.302              0.719
 Vibration    20          0.877              1.202              0.606
 Vibration    21          0.899              1.153              0.557
 Vibration    22          0.914              1.121              0.527
 Vibration    23          0.935              1.078              0.488

 Optimization completed.
    -- Stationary point found.

 1\1\GINC-BD21\Freq\UM062X\def2TZVP\C10H18N1O2(2)\MIYAO\09-Jan-2025\0\\
 #P Geom=AllCheck Guess=TCheck SCRF=Check GenChk UM062X/def2TZVP Freq\\
 data_set_3-catalyst-Mix_10_opt\\0,2\O,1.3772529996,1.5205234185,-1.048
 4288434\N,0.6761388793,0.6522700485,-0.444703944\C,-0.6330820534,1.188
 6842089,0.0505294422\C,0.6136626595,-1.8480840101,-0.5290661913\C,1.36
 79710866,-0.6071995898,-0.018718169\C,-1.3554708977,1.7722651442,-1.16
 51874918\C,-0.3332385785,2.2939823471,1.0655177421\C,2.7391011085,-0.6
 18320436,-0.695284775\C,1.5915090354,-0.6251067263,1.4966403924\H,1.28

 Normal termination of Gaussian 16 at Thu Jan  9 12:05:50 2025.
