 Gaussian 16, Revision C.01,
 Gaussian 16:  ES64L-G16RevC.01  3-Jul-2019

 ----------------------------------
 #p M062X/DEF2TZVP opt freq pop=NBO
 ----------------------------------

 ------------------------------
 data_set_3-catalyst-Mix_17_opt
 ------------------------------
 Symbolic Z-matrix:
 Charge =  0 Multiplicity = 2

 SCF Done:  E(UM062X) =  -716.120094704     A.U. after   19 cycles
 SCF Done:  E(UM062X) =  -716.125712281     A.U. after   17 cycles
 SCF Done:  E(UM062X) =  -716.125951074     A.U. after   15 cycles
 SCF Done:  E(UM062X) =  -716.125911239     A.U. after   15 cycles
 SCF Done:  E(UM062X) =  -716.126195438     A.U. after   14 cycles
 SCF Done:  E(UM062X) =  -716.126207383     A.U. after   13 cycles
 SCF Done:  E(UM062X) =  -716.126222254     A.U. after   13 cycles
 SCF Done:  E(UM062X) =  -716.126225533     A.U. after   12 cycles
 SCF Done:  E(UM062X) =  -716.126227361     A.U. after   12 cycles
 SCF Done:  E(UM062X) =  -716.126227068     A.U. after   14 cycles
 SCF Done:  E(UM062X) =  -716.126226103     A.U. after    8 cycles
 SCF Done:  E(UM062X) =  -716.126209821     A.U. after   13 cycles
 SCF Done:  E(UM062X) =  -716.126226496     A.U. after   13 cycles
 SCF Done:  E(UM062X) =  -716.126227559     A.U. after    9 cycles
 SCF Done:  E(UM062X) =  -716.126227410     A.U. after   10 cycles
 SCF Done:  E(UM062X) =  -716.126227499     A.U. after    8 cycles
 Optimization completed.
    -- Stationary point found.

 1\1\GINC-BD21\FOpt\UM062X\def2TZVP\C13H26N1O2(2)\MIYAO\09-Jan-2025\0\\
 #p M062X/DEF2TZVP opt freq pop=NBO\\data_set_3-catalyst-Mix_17_opt\\0,
 2\O,-0.5640764527,-1.9120091532,-0.2306044475\N,-0.2828414034,-0.69832
 12956,0.0063693753\C,-1.3692734216,0.2896770092,-0.2224127341\C,1.1662
 265221,-0.3641745985,0.0679369031\C,-2.6606417896,-0.2675771215,0.4026
 838265\C,-1.6048961364,0.5231411253,-1.7354457747\C,1.7072647974,-0.41
 08771965,-1.3780200574\C,1.8720491745,-1.4381838371,0.9146673172\H,-3.
 0352628317,-1.0757918064,-0.224136196\H,-3.3942018917,0.542153595,0.35

 Normal termination of Gaussian 16 at Thu Jan  9 19:39:30 2025.

 --------------------------------------------------------------------
 #P Geom=AllCheck Guess=TCheck SCRF=Check GenChk UM062X/def2TZVP Freq
 --------------------------------------------------------------------

 Structure from the checkpoint file:  "outputs/data_set_3-catalyst-Mix_17_opt.chk"
 ------------------------------
 data_set_3-catalyst-Mix_17_opt
 ------------------------------
 Charge =  0 Multiplicity = 2

                         Standard orientation:
 ---------------------------------------------------------------------
 Center     Atomic      Atomic             Coordinates (Angstroms)
 Number     Number       Type             X           Y           Z
 ---------------------------------------------------------------------
      1          8           0        0.581120   -1.896515    0.331575
      2          7           0        0.289618   -0.699603    0.030384
      3          6           0        1.366660    0.308857    0.208720
      4          6           0       -1.162228   -0.382269   -0.051390
      5          6           0        2.664390   -0.268904   -0.383732
      6          6           0        1.596692    0.623909    1.707760
      7          6           0       -1.706169   -0.357533    1.394020
      8          6           0       -1.856481   -1.505769   -0.841576
      9          1           0        3.044757   -1.039520    0.285542
     10          1           0        3.390585    0.548807   -0.377482
     11          1           0        0.814715    1.298816    2.062020
     12          1           0        2.526434    1.199371    1.749603
     13          1           0       -1.212810    0.440383    1.953296
     14          1           0       -1.396811   -1.299564    1.852056
     15          1           0       -2.874122   -1.163480   -1.045235
     16          1           0       -1.936124   -2.383311   -0.197847
     17          6           0        1.694510   -0.564069    2.656032
     18          6           0        2.547413   -0.854385   -1.784962
     19          6           0       -1.179213   -1.907376   -2.145894
     20          6           0       -3.217457   -0.205215    1.527330
     21          6           0        1.003484    1.605786   -0.519742
     22          6           0       -0.426851    2.050009   -0.297948
     23          6           0       -1.360281    0.952178   -0.773233
     24          1           0        0.754030   -1.109112    2.713800
     25          1           0        1.945801   -0.210800    3.657102
     26          1           0        2.459738   -1.274245    2.346547
     27          1           0        1.946444   -1.761380   -1.770122
     28          1           0        3.536617   -1.111302   -2.164751
     29          1           0        2.096666   -0.157772   -2.493143
     30          1           0       -0.234896   -2.409139   -1.946196
     31          1           0       -0.980055   -1.051947   -2.793142
     32          1           0       -1.818048   -2.594984   -2.700639
     33          1           0       -3.748722   -1.037194    1.066002
     34          1           0       -3.582132    0.719718    1.078178
     35          1           0       -3.495076   -0.183803    2.581375
     36          1           0        1.134787    1.489636   -1.597631
     37          1           0        1.688493    2.390350   -0.192279
     38          1           0       -1.185058    0.825504   -1.844110
     39          1           0       -2.402779    1.258660   -0.655507
     40          8           0       -0.602662    3.239362   -1.051175
     41          1           0       -0.601286    2.264016    0.762772
     42          1           0       -1.512952    3.535422   -0.958404
 ---------------------------------------------------------------------

 SCF Done:  E(UM062X) =  -716.126227499     A.U. after    1 cycles

 The electronic state is 2-A.
 Alpha  occ. eigenvalues --  -19.63009 -19.62174 -14.83304 -10.59334 -10.58686
 Alpha  occ. eigenvalues --  -10.58511 -10.53956 -10.53801 -10.53636 -10.53529
 Alpha  occ. eigenvalues --  -10.53164 -10.53153 -10.52922 -10.51698 -10.51665
 Alpha  occ. eigenvalues --  -10.51498  -1.22665  -1.15455  -0.98189  -0.93766
 Alpha  occ. eigenvalues --   -0.86941  -0.85662  -0.84995  -0.84827  -0.81263
 Alpha  occ. eigenvalues --   -0.75512  -0.74370  -0.71027  -0.69757  -0.68482
 Alpha  occ. eigenvalues --   -0.66697  -0.61203  -0.59039  -0.57338  -0.56984
 Alpha  occ. eigenvalues --   -0.55743  -0.53452  -0.53113  -0.51991  -0.51265
 Alpha  occ. eigenvalues --   -0.50091  -0.49484  -0.48361  -0.47848  -0.46581
 Alpha  occ. eigenvalues --   -0.46122  -0.44692  -0.44331  -0.43589  -0.43427
 Alpha  occ. eigenvalues --   -0.43085  -0.42393  -0.42097  -0.41647  -0.41344
 Alpha  occ. eigenvalues --   -0.39797  -0.39417  -0.38881  -0.38327  -0.37522
 Alpha  occ. eigenvalues --   -0.36652  -0.34876  -0.32936  -0.25579
 Alpha virt. eigenvalues --    0.04779   0.06725   0.06963   0.07682   0.08985
 Alpha virt. eigenvalues --    0.09315   0.10557   0.10795   0.11481   0.12561
 Alpha virt. eigenvalues --    0.12931   0.13399   0.13680   0.13994   0.14620

  Beta  occ. eigenvalues --  -19.63009 -19.61120 -14.82535 -10.59335 -10.58720
  Beta  occ. eigenvalues --  -10.58544 -10.53952 -10.53763 -10.53594 -10.53527
  Beta  occ. eigenvalues --  -10.53152 -10.53149 -10.52909 -10.51699 -10.51666
  Beta  occ. eigenvalues --  -10.51500  -1.19797  -1.15450  -0.97075  -0.93610
  Beta  occ. eigenvalues --   -0.86868  -0.85415  -0.84820  -0.83363  -0.81242
  Beta  occ. eigenvalues --   -0.75332  -0.73790  -0.70865  -0.69668  -0.68349
  Beta  occ. eigenvalues --   -0.66225  -0.60972  -0.58650  -0.56113  -0.55597
  Beta  occ. eigenvalues --   -0.54035  -0.53322  -0.52947  -0.51895  -0.51054
  Beta  occ. eigenvalues --   -0.49696  -0.48897  -0.48254  -0.47606  -0.46012
  Beta  occ. eigenvalues --   -0.45007  -0.44513  -0.44219  -0.43535  -0.42927
  Beta  occ. eigenvalues --   -0.42395  -0.41861  -0.41823  -0.41330  -0.40671
  Beta  occ. eigenvalues --   -0.39653  -0.39067  -0.38715  -0.37396  -0.36757
  Beta  occ. eigenvalues --   -0.35951  -0.34720  -0.31408
  Beta virt. eigenvalues --   -0.00851   0.04882   0.06801   0.07100   0.07725
  Beta virt. eigenvalues --    0.09030   0.09374   0.10563   0.10832   0.11529
  Beta virt. eigenvalues --    0.12627   0.13046   0.13623   0.13692   0.14172

 Mulliken charges and spin densities:
               1          2
     1  O   -0.388537   0.517513
     2  N    0.174061   0.445850
     3  C    0.058662   0.012571
     4  C    0.162146   0.011890
     5  C   -0.243666  -0.015572
     6  C   -0.320160   0.027540
     7  C   -0.377943   0.026038
     8  C   -0.292733  -0.021155
     9  H    0.149323  -0.000844
    10  H    0.144872  -0.000740
    11  H    0.145060  -0.001609
    12  H    0.160494   0.004120
    13  H    0.151463  -0.000763
    14  H    0.190613  -0.003286
    15  H    0.151332  -0.000651
    16  H    0.167088  -0.000445
    17  C   -0.402434  -0.006133
    18  C   -0.450528   0.016006
    19  C   -0.455958   0.017664
    20  C   -0.447225   0.002072
    21  C   -0.344137   0.003157
    22  C    0.069719  -0.016730
    23  C   -0.465659   0.011945
    24  H    0.155660   0.000679
    25  H    0.138981   0.002656
    26  H    0.144469   0.002017
    27  H    0.156729  -0.004059
    28  H    0.145981  -0.001637
    29  H    0.133546  -0.004475
    30  H    0.162590  -0.004237
    31  H    0.134979  -0.004604
    32  H    0.145519  -0.001650
    33  H    0.159454  -0.000205
    34  H    0.134821   0.000119
    35  H    0.152454   0.001797
    36  H    0.173142  -0.005310
    37  H    0.174849  -0.001359
    38  H    0.182285  -0.006720
    39  H    0.172378  -0.001280
    40  O   -0.456476   0.000406
    41  H    0.144602  -0.000731
    42  H    0.308185   0.000156
 Sum of Mulliken charges =  -0.00000   1.00000

 Dipole moment (field-independent basis, Debye):
    X=             -1.8054    Y=              1.7199    Z=              0.7101  Tot=              2.5926
 Quadrupole moment (field-independent basis, Debye-Ang):
   XX=            -95.4171   YY=           -110.2405   ZZ=           -103.3272
   XY=             -1.6369   XZ=              0.4920   YZ=              3.9316

  Exact polarizability:     171.062      -1.021     155.785      -1.175       1.929     157.919
 Approx polarizability:     196.036      -2.535     199.794       0.525      -2.157     189.924

 Summary of Natural Population Analysis:

                                       Natural Population
                Natural  -----------------------------------------------
    Atom  No    Charge         Core      Valence    Rydberg      Total
 -----------------------------------------------------------------------
      O    1    0.03916      0.99993     2.95572    0.00520     3.96084
      N    2    0.24237      0.99969     2.23728    0.02065     3.25763
      C    3    0.05019      0.99962     1.93908    0.01112     2.94981
      C    4    0.05205      0.99962     1.93694    0.01138     2.94795
      C    5   -0.19359      0.99969     2.18539    0.00850     3.19359
      C    6   -0.18785      0.99968     2.18062    0.00755     3.18785
      C    7   -0.19149      0.99968     2.18365    0.00815     3.19149
      C    8   -0.19608      0.99969     2.18767    0.00872     3.19608
      H    9    0.10959      0.00000     0.38968    0.00073     0.39041
      H   10    0.10063      0.00000     0.39879    0.00059     0.39937
      H   11    0.09743      0.00000     0.40176    0.00081     0.40257
      H   12    0.10564      0.00000     0.39371    0.00065     0.39436
      H   13    0.09833      0.00000     0.40089    0.00078     0.40167
      H   14    0.11021      0.00000     0.38897    0.00081     0.38979
      H   15    0.10096      0.00000     0.39845    0.00059     0.39904
      H   16    0.10978      0.00000     0.38952    0.00070     0.39022
      C   17   -0.30197      0.99975     2.29679    0.00544     3.30197
      C   18   -0.30198      0.99974     2.29711    0.00513     3.30198
      C   19   -0.30137      0.99974     2.29646    0.00516     3.30137
      C   20   -0.30142      0.99974     2.29845    0.00323     3.30142
      C   21   -0.20928      0.99965     2.20058    0.00904     3.20928
      C   22    0.04910      0.99958     1.94252    0.00880     2.95090
      C   23   -0.21872      0.99965     2.21015    0.00891     3.21872
      H   24    0.10558      0.00000     0.39370    0.00073     0.39442
      H   25    0.10458      0.00000     0.39503    0.00039     0.39542
      H   26    0.10554      0.00000     0.39383    0.00063     0.39446
      H   27    0.10929      0.00000     0.39002    0.00069     0.39071
      H   28    0.10519      0.00000     0.39444    0.00037     0.39481
      H   29    0.09791      0.00000     0.40150    0.00058     0.40209
      H   30    0.11026      0.00000     0.38906    0.00068     0.38974
      H   31    0.09789      0.00000     0.40144    0.00066     0.40211
      H   32    0.10488      0.00000     0.39474    0.00038     0.39512
      H   33    0.10357      0.00000     0.39582    0.00062     0.39643
      H   34    0.09755      0.00000     0.40175    0.00070     0.40245
      H   35    0.10860      0.00000     0.39090    0.00049     0.39140
      H   36    0.10735      0.00000     0.39169    0.00096     0.39265
      H   37    0.11144      0.00000     0.38794    0.00062     0.38856
      H   38    0.10930      0.00000     0.38980    0.00091     0.39070
      H   39    0.10405      0.00000     0.39519    0.00077     0.39595
      O   40   -0.35243      0.99991     3.34675    0.00577     4.35243
      H   41    0.07718      0.00000     0.42198    0.00085     0.42282
      H   42    0.23058      0.00000     0.26755    0.00187     0.26942
 =======================================================================
   * Total *    0.50000     15.99539    46.85332    0.15129    63.00000

                      1                      2                      3
                      A                      A                      A
 Frequencies --     57.2853                77.4999                84.3752
 Red. masses --      2.5994                 2.1225                 1.8697
 Frc consts  --      0.0050                 0.0075                 0.0078
 IR Inten    --      0.1355                 0.7059                 0.3448

                      4                      5                      6
                      A                      A                      A
 Frequencies --    103.1214               130.7647               138.2705
 Red. masses --      1.8817                 2.2482                 3.0426
 Frc consts  --      0.0118                 0.0226                 0.0343
 IR Inten    --      0.0861                 0.2708                 0.3829

                      7                      8                      9
                      A                      A                      A
 Frequencies --    155.1119               188.3652               203.3196
 Red. masses --      2.2225                 2.4165                 1.4473
 Frc consts  --      0.0315                 0.0505                 0.0352
 IR Inten    --      0.7050                 0.1704                 1.0233

                     10                     11                     12
                      A                      A                      A
 Frequencies --    206.6396               219.5738               227.3690
 Red. masses --      2.2994                 2.1004                 1.4423
 Frc consts  --      0.0578                 0.0597                 0.0439
 IR Inten    --      3.1732                 0.8695                 0.6566

                     13                     14                     15
                      A                      A                      A
 Frequencies --    247.3847               262.9954               279.5795
 Red. masses --      2.3887                 1.2737                 1.4719
 Frc consts  --      0.0861                 0.0519                 0.0678
 IR Inten    --      1.3634                60.8087                 4.2303

                     16                     17                     18
                      A                      A                      A
 Frequencies --    283.9221               293.1288               311.9661
 Red. masses --      1.8680                 2.3615                 2.3516
 Frc consts  --      0.0887                 0.1196                 0.1348
 IR Inten    --     39.0382                 5.1879                 1.6132

                     19                     20                     21
                      A                      A                      A
 Frequencies --    331.5176               336.3854               364.1139
 Red. masses --      2.4016                 2.3700                 2.6905
 Frc consts  --      0.1555                 0.1580                 0.2102
 IR Inten    --      0.1755                 0.0742                 1.3233

                     22                     23                     24
                      A                      A                      A
 Frequencies --    388.5016               395.9140               397.0383
 Red. masses --      3.1262                 5.1553                 4.3527
 Frc consts  --      0.2780                 0.4761                 0.4043
 IR Inten    --      3.3924                 0.4715                15.4703

                     25                     26                     27
                      A                      A                      A
 Frequencies --    450.9186               473.9372               498.6874
 Red. masses --      3.2002                 3.0325                 2.3290
 Frc consts  --      0.3834                 0.4013                 0.3413
 IR Inten    --      1.9988                 0.3719                 3.5051

                     28                     29                     30
                      A                      A                      A
 Frequencies --    505.4749               558.5046               598.8101
 Red. masses --      2.9506                 2.6285                 4.2864
 Frc consts  --      0.4442                 0.4831                 0.9056
 IR Inten    --      0.6120                 0.6764                 4.2446

                     31                     32                     33
                      A                      A                      A
 Frequencies --    628.4144               712.0844               765.5859
 Red. masses --      3.0113                 2.7079                 1.5721
 Frc consts  --      0.7006                 0.8090                 0.5429
 IR Inten    --      7.3000                 7.7994                 2.7980

                     34                     35                     36
                      A                      A                      A
 Frequencies --    781.5582               790.4276               805.7705
 Red. masses --      1.2404                 1.2411                 1.3380
 Frc consts  --      0.4464                 0.4568                 0.5118
 IR Inten    --      1.3210                 4.6459                12.4187

                     37                     38                     39
                      A                      A                      A
 Frequencies --    824.9504               868.2906               880.7867
 Red. masses --      1.5792                 2.1361                 1.7761
 Frc consts  --      0.6332                 0.9488                 0.8118
 IR Inten    --     10.1087                 0.3843                 9.2841

                     40                     41                     42
                      A                      A                      A
 Frequencies --    932.7297               952.2916               969.9062
 Red. masses --      2.2235                 1.7492                 2.0428
 Frc consts  --      1.1397                 0.9346                 1.1323
 IR Inten    --      4.1823                 1.4558                 6.0750

                     43                     44                     45
                      A                      A                      A
 Frequencies --    996.6780              1020.9645              1037.6670
 Red. masses --      1.6627                 1.7388                 1.5469
 Frc consts  --      0.9731                 1.0679                 0.9814
 IR Inten    --      5.7911                 0.3317                 3.3889

                     46                     47                     48
                      A                      A                      A
 Frequencies --   1051.2505              1056.5200              1064.7083
 Red. masses --      1.8090                 1.4932                 2.0613
 Frc consts  --      1.1779                 0.9820                 1.3767
 IR Inten    --      4.7849                 2.2351                 1.1838

                     49                     50                     51
                      A                      A                      A
 Frequencies --   1080.4954              1087.5029              1095.7159
 Red. masses --      2.3852                 1.7098                 1.9678
 Frc consts  --      1.6407                 1.1914                 1.3920
 IR Inten    --      1.9228                 6.1120                 4.6335

                     52                     53                     54
                      A                      A                      A
 Frequencies --   1106.2812              1113.4196              1121.8544
 Red. masses --      2.0255                 2.4270                 2.4242
 Frc consts  --      1.4606                 1.7727                 1.7976
 IR Inten    --      5.3465                69.1236                 8.3250

                     55                     56                     57
                      A                      A                      A
 Frequencies --   1125.5124              1175.7547              1197.9723
 Red. masses --      2.2420                 2.8374                 2.2847
 Frc consts  --      1.6734                 2.3110                 1.9318
 IR Inten    --      5.1887                14.2693                 5.4162

                     58                     59                     60
                      A                      A                      A
 Frequencies --   1207.4183              1219.1951              1233.8601
 Red. masses --      2.7452                 2.1956                 1.8847
 Frc consts  --      2.3580                 1.9229                 1.6905
 IR Inten    --     14.9537                 2.3590                13.5300

                     61                     62                     63
                      A                      A                      A
 Frequencies --   1245.2829              1270.5766              1298.1311
 Red. masses --      1.6393                 1.4815                 1.1922
 Frc consts  --      1.4977                 1.4091                 1.1837
 IR Inten    --     11.9097                28.2455                 0.2547

                     64                     65                     66
                      A                      A                      A
 Frequencies --   1310.5658              1317.8227              1335.8989
 Red. masses --      1.2276                 1.2531                 1.3009
 Frc consts  --      1.2423                 1.2822                 1.3679
 IR Inten    --      3.4481                 1.4184                 6.5351

                     67                     68                     69
                      A                      A                      A
 Frequencies --   1338.3050              1360.6288              1366.1057
 Red. masses --      1.2902                 1.4709                 1.6284
 Frc consts  --      1.3615                 1.6044                 1.7905
 IR Inten    --      7.3609                 5.0949                 3.9746

                     70                     71                     72
                      A                      A                      A
 Frequencies --   1371.6975              1377.3894              1378.6163
 Red. masses --      1.4738                 1.4476                 1.4447
 Frc consts  --      1.6338                 1.6182                 1.6178
 IR Inten    --      3.6319                 4.6074                 0.9261

                     73                     74                     75
                      A                      A                      A
 Frequencies --   1381.2331              1408.4994              1414.2577
 Red. masses --      1.5478                 1.3627                 1.2704
 Frc consts  --      1.7398                 1.5929                 1.4970
 IR Inten    --      6.9680                13.0565                 0.9363

                     76                     77                     78
                      A                      A                      A
 Frequencies --   1418.2107              1421.3444              1424.1124
 Red. masses --      1.3934                 1.3559                 1.2670
 Frc consts  --      1.6512                 1.6139                 1.5140
 IR Inten    --     20.5809                13.1084                 4.5722

                     79                     80                     81
                      A                      A                      A
 Frequencies --   1451.9103              1470.9149              1476.5761
 Red. masses --      1.6157                 2.1048                 1.0898
 Frc consts  --      2.0068                 2.6831                 1.3999
 IR Inten    --      5.0484                 3.7882                 2.3178

                     82                     83                     84
                      A                      A                      A
 Frequencies --   1481.1842              1485.0299              1488.3850
 Red. masses --      1.2153                 1.2691                 1.1153
 Frc consts  --      1.5709                 1.6490                 1.4557
 IR Inten    --      0.0661                 0.3154                 0.3001

                     85                     86                     87
                      A                      A                      A
 Frequencies --   1493.4202              1494.8349              1496.3477
 Red. masses --      1.0607                 1.0860                 1.0770
 Frc consts  --      1.3938                 1.4298                 1.4208
 IR Inten    --      9.4977                 2.6792                 4.3110

                     88                     89                     90
                      A                      A                      A
 Frequencies --   1500.2487              1503.1900              1504.6567
 Red. masses --      1.0454                 1.0851                 1.0521
 Frc consts  --      1.3863                 1.4447                 1.4034
 IR Inten    --      9.5763                 3.3276                 3.5919

                     91                     92                     93
                      A                      A                      A
 Frequencies --   1505.5772              1509.8137              1513.3595
 Red. masses --      1.0603                 1.0845                 1.0654
 Frc consts  --      1.4161                 1.4566                 1.4376
 IR Inten    --     12.8191                 7.9123                16.8256

                     94                     95                     96
                      A                      A                      A
 Frequencies --   1520.2047              3037.0183              3058.3944
 Red. masses --      1.0691                 1.0818                 1.0661
 Frc consts  --      1.4557                 5.8791                 5.8753
 IR Inten    --      9.8999                21.5431                 7.5195

                     97                     98                     99
                      A                      A                      A
 Frequencies --   3065.8829              3069.2167              3069.7869
 Red. masses --      1.0548                 1.0665                 1.0555
 Frc consts  --      5.8414                 5.9190                 5.8602
 IR Inten    --      2.4160                15.1322                 3.9690

                    100                    101                    102
                      A                      A                      A
 Frequencies --   3072.2690              3074.2304              3075.5596
 Red. masses --      1.0447                 1.0466                 1.0548
 Frc consts  --      5.8100                 5.8280                 5.8787
 IR Inten    --      6.1988                35.1126                14.4859

                    103                    104                    105
                      A                      A                      A
 Frequencies --   3077.5441              3079.0365              3082.4770
 Red. masses --      1.0466                 1.0401                 1.0539
 Frc consts  --      5.8402                 5.8095                 5.9002
 IR Inten    --     45.5958                36.6434                20.6914

                    106                    107                    108
                      A                      A                      A
 Frequencies --   3102.6593              3112.6049              3114.8501
 Red. masses --      1.0973                 1.1000                 1.1017
 Frc consts  --      6.2234                 6.2789                 6.2980
 IR Inten    --     11.8997                16.8755                 8.2551

                    109                    110                    111
                      A                      A                      A
 Frequencies --   3118.3717              3124.3977              3130.4687
 Red. masses --      1.1006                 1.1017                 1.0984
 Frc consts  --      6.3056                 6.3366                 6.3420
 IR Inten    --      7.0216                27.8673                 5.8430

                    112                    113                    114
                      A                      A                      A
 Frequencies --   3137.4149              3138.1918              3141.7498
 Red. masses --      1.1004                 1.1010                 1.0990
 Frc consts  --      6.3820                 6.3882                 6.3915
 IR Inten    --     31.7423                21.2102                26.3416

                    115                    116                    117
                      A                      A                      A
 Frequencies --   3147.4890              3151.0179              3164.1156
 Red. masses --      1.0974                 1.1019                 1.1013
 Frc consts  --      6.4053                 6.4462                 6.4964
 IR Inten    --     13.8412                28.5911                19.5606

                    118                    119                    120
                      A                      A                      A
 Frequencies --   3165.7689              3172.1194              3870.6758
 Red. masses --      1.1011                 1.0993                 1.0664
 Frc consts  --      6.5018                 6.5175                 9.4130
 IR Inten    --     12.2804                13.0829                34.9999

 - Thermochemistry -
 -------------------
 Temperature   298.150 Kelvin.  Pressure   1.00000 Atm.
 Atom     1 has atomic number  8 and mass  15.99491

 Molecular mass:   228.19635 amu.
 Principal axes and moments of inertia in atomic units:
                           1         2         3
     Eigenvalues --  3147.579473796.791544104.92260
           X            0.99974   0.01983  -0.01119
           Y           -0.01833   0.99246   0.12117
           Z            0.01351  -0.12093   0.99257
 This molecule is an asymmetric top.
 Rotational symmetry number  1.
 Warning -- assumption of classical behavior for rotation
           may cause significant error
 Rotational temperatures (Kelvin)      0.02752     0.02281     0.02110
 Rotational constants (GHZ):           0.57337     0.47533     0.43965
 Zero-point vibrational energy    1008234.7 (Joules/Mol)
                                  240.97389 (Kcal/Mol)
 Warning -- explicit consideration of  30 degrees of freedom as
           vibrations may cause significant error
 Vibrational temperatures:     82.42   111.51   121.40   148.37   188.14
          (Kelvin)            198.94   223.17   271.02   292.53   297.31
                              315.92   327.13   355.93   378.39   402.25
                              408.50   421.75   448.85   476.98   483.98
                              523.88   558.97   569.63   571.25   648.77
                              681.89   717.50   727.27   803.56   861.55
                              904.15  1024.53  1101.51  1124.49  1137.25
                             1159.32  1186.92  1249.28  1267.26  1341.99
                             1370.14  1395.48  1434.00  1468.94  1492.97
                             1512.51  1520.10  1531.88  1554.59  1564.67
                             1576.49  1591.69  1601.96  1614.10  1619.36
                             1691.65  1723.61  1737.21  1754.15  1775.25
                             1791.68  1828.08  1867.72  1885.61  1896.05
                             1922.06  1925.52  1957.64  1965.52  1973.57
                             1981.76  1983.52  1987.29  2026.52  2034.80
                             2040.49  2045.00  2048.98  2088.98  2116.32
                             2124.46  2131.09  2136.63  2141.45  2148.70
                             2150.73  2152.91  2158.52  2162.76  2164.87
                             2166.19  2172.29  2177.39  2187.24  4369.59
                             4400.35  4411.12  4415.92  4416.74  4420.31
                             4423.13  4425.04  4427.90  4430.05  4435.00
                             4464.03  4478.34  4481.57  4486.64  4495.31
                             4504.05  4514.04  4515.16  4520.28  4528.53
                             4533.61  4552.46  4554.84  4563.97  5569.04

 Zero-point correction=                           0.384016 (Hartree/Particle)
 Thermal correction to Energy=                    0.402276
 Thermal correction to Enthalpy=                  0.403220
 Thermal correction to Gibbs Free Energy=         0.339619
 Sum of electronic and zero-point Energies=           -715.742211
 Sum of electronic and thermal Energies=              -715.723951
 Sum of electronic and thermal Enthalpies=            -715.723007
 Sum of electronic and thermal Free Energies=         -715.786609

                     E (Thermal)             CV                S
                      KCal/Mol        Cal/Mol-Kelvin    Cal/Mol-Kelvin
 Total                  252.432             71.347            133.861
 Electronic               0.000              0.000              1.377
 Translational            0.889              2.981             42.177
 Rotational               0.889              2.981             32.262
 Vibrational            250.655             65.385             58.045
 Vibration     1          0.596              1.975              4.549
 Vibration     2          0.599              1.964              3.953
 Vibration     3          0.601              1.960              3.786
 Vibration     4          0.605              1.947              3.394
 Vibration     5          0.612              1.923              2.935
 Vibration     6          0.614              1.915              2.828
 Vibration     7          0.620              1.897              2.609
 Vibration     8          0.633              1.856              2.244
 Vibration     9          0.639              1.835              2.103
 Vibration    10          0.641              1.830              2.073
 Vibration    11          0.647              1.811              1.963
 Vibration    12          0.651              1.799              1.900
 Vibration    13          0.661              1.767              1.749
 Vibration    14          0.670              1.741              1.642
 Vibration    15          0.680              1.711              1.536
 Vibration    16          0.682              1.703              1.510
 Vibration    17          0.688              1.687              1.456
 Vibration    18          0.700              1.651              1.352
 Vibration    19          0.714              1.613              1.253
 Vibration    20          0.717              1.603              1.229
 Vibration    21          0.738              1.546              1.104
 Vibration    22          0.757              1.495              1.006
 Vibration    23          0.763              1.479              0.978
 Vibration    24          0.764              1.476              0.974
 Vibration    25          0.810              1.359              0.793
 Vibration    26          0.831              1.308              0.727
 Vibration    27          0.854              1.253              0.661
 Vibration    28          0.861              1.238              0.645
 Vibration    29          0.914              1.121              0.527
 Vibration    30          0.957              1.034              0.452

                           ! Non-Optimized Parameters !

 1\1\GINC-BD21\Freq\UM062X\def2TZVP\C13H26N1O2(2)\MIYAO\09-Jan-2025\0\\
 #P Geom=AllCheck Guess=TCheck SCRF=Check GenChk UM062X/def2TZVP Freq\\
 data_set_3-catalyst-Mix_17_opt\\0,2\O,-0.5640764527,-1.9120091532,-0.2
 306044475\N,-0.2828414034,-0.6983212956,0.0063693753\C,-1.3692734216,0
 .2896770092,-0.2224127341\C,1.1662265221,-0.3641745985,0.0679369031\C,
 -2.6606417896,-0.2675771215,0.4026838265\C,-1.6048961364,0.5231411253,
 -1.7354457747\C,1.7072647974,-0.4108771965,-1.3780200574\C,1.872049174
 5,-1.4381838371,0.9146673172\H,-3.0352628317,-1.0757918064,-0.22413619

 Normal termination of Gaussian 16 at Thu Jan  9 23:17:44 2025.
