 Gaussian 16, Revision C.01,
 Gaussian 16:  ES64L-G16RevC.01  3-Jul-2019

 ----------------------------------
 #p M062X/DEF2TZVP opt freq pop=NBO
 ----------------------------------

 ------------------------------
 data_set_3-catalyst-Mix_13_opt
 ------------------------------
 Symbolic Z-matrix:
 Charge =  0 Multiplicity = 2

 SCF Done:  E(UM062X) =  -598.192681706     A.U. after   17 cycles
 SCF Done:  E(UM062X) =  -598.198078904     A.U. after   14 cycles
 SCF Done:  E(UM062X) =  -598.198315732     A.U. after   13 cycles
 SCF Done:  E(UM062X) =  -598.198222202     A.U. after   14 cycles
 SCF Done:  E(UM062X) =  -598.198441916     A.U. after   14 cycles
 SCF Done:  E(UM062X) =  -598.198452607     A.U. after   10 cycles
 SCF Done:  E(UM062X) =  -598.198453686     A.U. after    9 cycles
 SCF Done:  E(UM062X) =  -598.198454035     A.U. after    8 cycles
 SCF Done:  E(UM062X) =  -598.198454126     A.U. after    8 cycles
 Optimization completed.
    -- Stationary point found.

 1\1\GINC-BD22\FOpt\UM062X\def2TZVP\C10H20N1O2(2)\MIYAO\09-Jan-2025\0\\
 #p M062X/DEF2TZVP opt freq pop=NBO\\data_set_3-catalyst-Mix_13_opt\\0,
 2\O,2.007020585,1.1300275882,-0.7666215259\N,1.0071836764,0.4897647625
 ,-0.3169933885\C,-0.1342967251,1.3664511749,0.0909395743\C,1.224823599
 ,-0.9381424435,0.068514012\C,-0.4587753049,2.2452227481,-1.1216882259\
 C,0.3485345332,2.2540895651,1.2426010139\C,1.2407063169,-1.0951680688,
 1.5920504375\C,2.5986217529,-1.3472055187,-0.4619528118\H,-1.255276998
 ,2.9431414891,-0.8624068822\H,-0.7858498639,1.6431774583,-1.9697074101

 Normal termination of Gaussian 16 at Thu Jan  9 12:36:54 2025.

 --------------------------------------------------------------------
 #P Geom=AllCheck Guess=TCheck SCRF=Check GenChk UM062X/def2TZVP Freq
 --------------------------------------------------------------------

 Structure from the checkpoint file:  "outputs/data_set_3-catalyst-Mix_13_opt.chk"
 ------------------------------
 data_set_3-catalyst-Mix_13_opt
 ------------------------------
 Charge =  0 Multiplicity = 2

                         Standard orientation:
 ---------------------------------------------------------------------
 Center     Atomic      Atomic             Coordinates (Angstroms)
 Number     Number       Type             X           Y           Z
 ---------------------------------------------------------------------
      1          8           0        2.002226    1.131298   -0.785126
      2          7           0        1.006492    0.491738   -0.325505
      3          6           0       -0.133132    1.368753    0.086887
      4          6           0        1.228750   -0.934211    0.064589
      5          6           0       -0.467505    2.241852   -1.127149
      6          6           0        0.356878    2.261979    1.231172
      7          6           0        1.255858   -1.084611    1.588636
      8          6           0        2.599199   -1.343847   -0.474037
      9          1           0       -1.263006    2.939889   -0.865128
     10          1           0       -0.799933    1.635727   -1.970166
     11          1           0        0.411787    2.801039   -1.435968
     12          1           0       -0.421435    2.976979    1.502256
     13          1           0        1.245442    2.806855    0.916481
     14          1           0        0.600546    1.668528    2.113639
     15          1           0        0.323477   -0.801805    2.069386
     16          1           0        2.056503   -0.470269    2.002522
     17          1           0        1.458189   -2.126899    1.843301
     18          1           0        3.389260   -0.729734   -0.050075
     19          1           0        2.639382   -1.241564   -1.557324
     20          1           0        2.773695   -2.386763   -0.207782
     21          6           0       -1.399256    0.634879    0.546929
     22          6           0       -1.959589   -0.481201   -0.328284
     23          6           0       -1.250510   -1.807518   -0.117086
     24          6           0        0.188579   -1.846141   -0.608157
     25          8           0       -3.352756   -0.627530   -0.088571
     26          1           0       -2.170692    1.405716    0.601766
     27          1           0       -1.283561    0.257096    1.566635
     28          1           0       -1.889192   -0.199692   -1.381962
     29          1           0       -1.817532   -2.573283   -0.650349
     30          1           0       -1.298158   -2.065934    0.947892
     31          1           0        0.209894   -1.626579   -1.679911
     32          1           0        0.553208   -2.869972   -0.495428
     33          1           0       -3.474709   -0.931245    0.817328
 ---------------------------------------------------------------------

 SCF Done:  E(UM062X) =  -598.198454126     A.U. after    1 cycles

 The electronic state is 2-A.
 Alpha  occ. eigenvalues --  -19.62685 -19.61759 -14.83184 -10.59199 -10.59090
 Alpha  occ. eigenvalues --  -10.59015 -10.54340 -10.54106 -10.53918 -10.53690
 Alpha  occ. eigenvalues --  -10.52680 -10.52280 -10.52197  -1.22322  -1.15184
 Alpha  occ. eigenvalues --   -0.97290  -0.93327  -0.88535  -0.82181  -0.81475
 Alpha  occ. eigenvalues --   -0.79285  -0.78322  -0.74490  -0.70051  -0.67556
 Alpha  occ. eigenvalues --   -0.60198  -0.59525  -0.58075  -0.56190  -0.55185
 Alpha  occ. eigenvalues --   -0.53468  -0.52045  -0.51537  -0.49870  -0.48609
 Alpha  occ. eigenvalues --   -0.47800  -0.46846  -0.46420  -0.45784  -0.45490
 Alpha  occ. eigenvalues --   -0.44329  -0.43437  -0.43107  -0.42519  -0.41578
 Alpha  occ. eigenvalues --   -0.40109  -0.39461  -0.38362  -0.37925  -0.34869
 Alpha  occ. eigenvalues --   -0.33103  -0.25471
 Alpha virt. eigenvalues --    0.05202   0.05872   0.07859   0.08158   0.08986
 Alpha virt. eigenvalues --    0.10437   0.11191   0.11764   0.12440   0.13014
 Alpha virt. eigenvalues --    0.13399   0.14394   0.15147   0.15300   0.16417

  Beta  occ. eigenvalues --  -19.62685 -19.60676 -14.82377 -10.59200 -10.59123
  Beta  occ. eigenvalues --  -10.59050 -10.54313 -10.54106 -10.53919 -10.53653
  Beta  occ. eigenvalues --  -10.52649 -10.52280 -10.52179  -1.19356  -1.15185
  Beta  occ. eigenvalues --   -0.96173  -0.93160  -0.88069  -0.81556  -0.80229
  Beta  occ. eigenvalues --   -0.79115  -0.78196  -0.74295  -0.69881  -0.67162
  Beta  occ. eigenvalues --   -0.59603  -0.58997  -0.57555  -0.54797  -0.53674
  Beta  occ. eigenvalues --   -0.53078  -0.51852  -0.50421  -0.49560  -0.47957
  Beta  occ. eigenvalues --   -0.47512  -0.46441  -0.46158  -0.45614  -0.45020
  Beta  occ. eigenvalues --   -0.43289  -0.42991  -0.42615  -0.42285  -0.40773
  Beta  occ. eigenvalues --   -0.39422  -0.38674  -0.37965  -0.36571  -0.34795
  Beta  occ. eigenvalues --   -0.31423
  Beta virt. eigenvalues --    0.00033   0.05202   0.05962   0.07874   0.08180
  Beta virt. eigenvalues --    0.09110   0.10457   0.11208   0.11807   0.12400
  Beta virt. eigenvalues --    0.13190   0.13492   0.14474   0.15144   0.15520

 Mulliken charges and spin densities:
               1          2
     1  O   -0.391732   0.533251
     2  N    0.204887   0.459427
     3  C   -0.028191   0.013159
     4  C    0.049506  -0.061821
     5  C   -0.424068  -0.006568
     6  C   -0.428814   0.019643
     7  C   -0.501666   0.025965
     8  C   -0.412224  -0.003943
     9  H    0.141251  -0.001448
    10  H    0.141847   0.001823
    11  H    0.182563  -0.000753
    12  H    0.148401  -0.000125
    13  H    0.181966  -0.002443
    14  H    0.146286   0.000797
    15  H    0.151396  -0.001493
    16  H    0.180700  -0.001929
    17  H    0.163172   0.003902
    18  H    0.168297  -0.000372
    19  H    0.164575   0.000566
    20  H    0.137303  -0.001053
    21  C   -0.374368  -0.012444
    22  C    0.048308   0.017934
    23  C   -0.314742  -0.015273
    24  C   -0.345491   0.048242
    25  O   -0.453484  -0.000155
    26  H    0.180453  -0.000923
    27  H    0.165130  -0.000193
    28  H    0.154856  -0.007696
    29  H    0.164277   0.000132
    30  H    0.161356   0.000045
    31  H    0.175723  -0.008295
    32  H    0.155353   0.002117
    33  H    0.307176  -0.000073
 Sum of Mulliken charges =  -0.00000   1.00000

 Dipole moment (field-independent basis, Debye):
    X=             -0.8167    Y=             -1.7450    Z=              2.2910  Tot=              2.9934
 Quadrupole moment (field-independent basis, Debye-Ang):
   XX=            -93.2906   YY=            -79.9367   ZZ=            -80.8989
   XY=             -4.3055   XZ=             -1.4227   YZ=              0.4505

  Exact polarizability:     135.497      -0.577     132.905      -2.410      -1.133     115.371
 Approx polarizability:     157.722       2.763     154.126      -5.085      -3.790     150.893

 Summary of Natural Population Analysis:

                                       Natural Population
                Natural  -----------------------------------------------
    Atom  No    Charge         Core      Valence    Rydberg      Total
 -----------------------------------------------------------------------
      O    1    0.04672      0.99993     2.94801    0.00534     3.95328
      N    2    0.24616      0.99971     2.23356    0.02057     3.25384
      C    3    0.04121      0.99964     1.94959    0.00956     2.95879
      C    4    0.03838      0.99964     1.95376    0.00821     2.96162
      C    5   -0.29593      0.99970     2.28958    0.00664     3.29593
      C    6   -0.29099      0.99970     2.28492    0.00637     3.29099
      C    7   -0.30080      0.99969     2.29435    0.00676     3.30080
      C    8   -0.29433      0.99971     2.28750    0.00712     3.29433
      H    9    0.10176      0.00000     0.39776    0.00048     0.39824
      H   10    0.10354      0.00000     0.39592    0.00053     0.39646
      H   11    0.11765      0.00000     0.38178    0.00057     0.38235
      H   12    0.10411      0.00000     0.39541    0.00048     0.39589
      H   13    0.11459      0.00000     0.38488    0.00053     0.38541
      H   14    0.10173      0.00000     0.39777    0.00050     0.39827
      H   15    0.10185      0.00000     0.39750    0.00065     0.39815
      H   16    0.10961      0.00000     0.38988    0.00051     0.39039
      H   17    0.10890      0.00000     0.39066    0.00045     0.39110
      H   18    0.11316      0.00000     0.38631    0.00053     0.38684
      H   19    0.11076      0.00000     0.38870    0.00054     0.38924
      H   20    0.09947      0.00000     0.40008    0.00046     0.40053
      C   21   -0.21838      0.99965     2.20998    0.00874     3.21838
      C   22    0.04717      0.99960     1.94370    0.00953     2.95283
      C   23   -0.20945      0.99970     2.20217    0.00758     3.20945
      C   24   -0.19566      0.99967     2.18788    0.00811     3.19566
      O   25   -0.34980      0.99991     3.34351    0.00638     4.34980
      H   26    0.11598      0.00000     0.38335    0.00067     0.38402
      H   27    0.09807      0.00000     0.40106    0.00087     0.40193
      H   28    0.08844      0.00000     0.41048    0.00108     0.41156
      H   29    0.11187      0.00000     0.38754    0.00059     0.38813
      H   30    0.09402      0.00000     0.40509    0.00089     0.40598
      H   31    0.10619      0.00000     0.39310    0.00071     0.39381
      H   32    0.10756      0.00000     0.39184    0.00060     0.39244
      H   33    0.22644      0.00000     0.27163    0.00193     0.27356
 =======================================================================
   * Total *    0.50000     12.99628    37.87922    0.12450    51.00000

                      1                      2                      3
                      A                      A                      A
 Frequencies --     47.2901                96.9427               142.7661
 Red. masses --      4.9501                 3.5244                 2.6363
 Frc consts  --      0.0065                 0.0195                 0.0317
 IR Inten    --      3.9164                 0.3802                 1.1214

                      4                      5                      6
                      A                      A                      A
 Frequencies --    189.9834               200.8774               239.5879
 Red. masses --      1.5685                 1.6739                 1.1858
 Frc consts  --      0.0334                 0.0398                 0.0401
 IR Inten    --      0.8159                 2.4711                48.9586

                      7                      8                      9
                      A                      A                      A
 Frequencies --    244.2698               247.5720               269.2813
 Red. masses --      1.6323                 1.7195                 1.1717
 Frc consts  --      0.0574                 0.0621                 0.0501
 IR Inten    --     15.5305                 0.2800                 2.9084

                     10                     11                     12
                      A                      A                      A
 Frequencies --    280.7772               287.1664               311.7109
 Red. masses --      2.8144                 1.8697                 2.6957
 Frc consts  --      0.1307                 0.0908                 0.1543
 IR Inten    --      0.9843                 5.9422                26.6427

                     13                     14                     15
                      A                      A                      A
 Frequencies --    320.0923               324.6642               340.0033
 Red. masses --      1.1235                 2.5434                 2.9527
 Frc consts  --      0.0678                 0.1580                 0.2011
 IR Inten    --      0.1946                 0.2767                 0.0454

                     16                     17                     18
                      A                      A                      A
 Frequencies --    370.3127               385.1546               418.6468
 Red. masses --      2.5550                 3.0167                 2.5218
 Frc consts  --      0.2064                 0.2637                 0.2604
 IR Inten    --      0.0776                 0.9405                 6.3130

                     19                     20                     21
                      A                      A                      A
 Frequencies --    440.0219               448.7695               475.0066
 Red. masses --      3.3307                 2.8626                 2.2268
 Frc consts  --      0.3800                 0.3397                 0.2960
 IR Inten    --     14.8031                 6.2434                 7.8459

                     22                     23                     24
                      A                      A                      A
 Frequencies --    538.3792               547.4719               574.3443
 Red. masses --      2.6518                 3.4654                 3.0105
 Frc consts  --      0.4529                 0.6120                 0.5851
 IR Inten    --      0.8339                 2.1242                 4.2030

                     25                     26                     27
                      A                      A                      A
 Frequencies --    606.1101               678.1733               807.0382
 Red. masses --      2.9073                 3.3040                 2.4186
 Frc consts  --      0.6293                 0.8953                 0.9281
 IR Inten    --      3.6134                 2.3498                 1.5701

                     28                     29                     30
                      A                      A                      A
 Frequencies --    826.4243               857.8242               910.6074
 Red. masses --      2.1976                 1.9721                 1.8273
 Frc consts  --      0.8843                 0.8550                 0.8927
 IR Inten    --      0.4020                 3.8262                 3.7802

                     31                     32                     33
                      A                      A                      A
 Frequencies --    922.4909               950.7439               955.2526
 Red. masses --      2.0303                 1.6132                 1.4336
 Frc consts  --      1.0180                 0.8592                 0.7708
 IR Inten    --      1.2739                 1.2183                 2.0566

                     34                     35                     36
                      A                      A                      A
 Frequencies --    960.4997               990.2915              1013.5729
 Red. masses --      1.7312                 1.7868                 1.3727
 Frc consts  --      0.9410                 1.0324                 0.8309
 IR Inten    --      7.7176                 1.9933                 2.2775

                     37                     38                     39
                      A                      A                      A
 Frequencies --   1027.0071              1054.5077              1079.3600
 Red. masses --      1.3478                 1.9378                 1.9811
 Frc consts  --      0.8376                 1.2696                 1.3598
 IR Inten    --      2.1712                38.1689                 6.3288

                     40                     41                     42
                      A                      A                      A
 Frequencies --   1084.8778              1100.2396              1126.6986
 Red. masses --      2.1930                 2.5559                 1.3445
 Frc consts  --      1.5208                 1.8229                 1.0056
 IR Inten    --      7.2981                71.8883                12.1267

                     43                     44                     45
                      A                      A                      A
 Frequencies --   1148.3198              1172.7956              1196.3502
 Red. masses --      2.2402                 1.6729                 2.1057
 Frc consts  --      1.7404                 1.3557                 1.7757
 IR Inten    --     10.0579                 9.3979                 4.8127

                     46                     47                     48
                      A                      A                      A
 Frequencies --   1233.1096              1238.5635              1258.5673
 Red. masses --      2.9154                 2.0195                 2.2574
 Frc consts  --      2.6119                 1.8253                 2.1068
 IR Inten    --     35.1605                16.3462                 6.1943

                     49                     50                     51
                      A                      A                      A
 Frequencies --   1269.7360              1282.7944              1310.7613
 Red. masses --      2.1901                 2.4173                 1.4248
 Frc consts  --      2.0804                 2.3436                 1.4423
 IR Inten    --     31.6172                 6.0014                 6.1820

                     52                     53                     54
                      A                      A                      A
 Frequencies --   1319.7595              1351.6307              1387.2221
 Red. masses --      1.3575                 1.3927                 1.3606
 Frc consts  --      1.3931                 1.4991                 1.5427
 IR Inten    --      7.8624                 3.0814                 2.1584

                     55                     56                     57
                      A                      A                      A
 Frequencies --   1393.3738              1398.5592              1402.3709
 Red. masses --      1.2884                 1.3070                 1.4633
 Frc consts  --      1.4737                 1.5062                 1.6955
 IR Inten    --     17.3850                 5.8947                 8.9579

                     58                     59                     60
                      A                      A                      A
 Frequencies --   1413.0132              1416.2872              1422.1424
 Red. masses --      1.6004                 1.3299                 1.3097
 Frc consts  --      1.8827                 1.5717                 1.5607
 IR Inten    --      2.6450                15.4757                34.5620

                     61                     62                     63
                      A                      A                      A
 Frequencies --   1432.5460              1466.5480              1471.3369
 Red. masses --      1.3369                 2.9008                 1.2152
 Frc consts  --      1.6165                 3.6759                 1.5499
 IR Inten    --     27.0531                 2.2184                 0.1360

                     64                     65                     66
                      A                      A                      A
 Frequencies --   1475.0461              1480.3683              1486.5603
 Red. masses --      1.1111                 1.0673                 1.0762
 Frc consts  --      1.4243                 1.3781                 1.4012
 IR Inten    --      1.9044                 1.7980                 2.7057

                     67                     68                     69
                      A                      A                      A
 Frequencies --   1491.6719              1494.7798              1498.4069
 Red. masses --      1.0731                 1.0528                 1.0639
 Frc consts  --      1.4068                 1.3860                 1.4074
 IR Inten    --      8.0197                 3.7186                 1.5324

                     70                     71                     72
                      A                      A                      A
 Frequencies --   1500.6872              1514.1408              1518.5982
 Red. masses --      1.0846                 1.0682                 1.0796
 Frc consts  --      1.4391                 1.4429                 1.4669
 IR Inten    --      8.4787                 2.9478                 5.3791

                     73                     74                     75
                      A                      A                      A
 Frequencies --   1522.3054              3035.5055              3055.3575
 Red. masses --      1.0724                 1.0679                 1.0611
 Frc consts  --      1.4642                 5.7975                 5.8364
 IR Inten    --     18.5100                14.6790                14.4766

                     76                     77                     78
                      A                      A                      A
 Frequencies --   3063.1087              3067.9702              3071.9944
 Red. masses --      1.0561                 1.0355                 1.0456
 Frc consts  --      5.8381                 5.7424                 5.8140
 IR Inten    --      0.8368                12.1985                20.8194

                     79                     80                     81
                      A                      A                      A
 Frequencies --   3078.5056              3082.5552              3086.5058
 Red. masses --      1.0431                 1.0387                 1.0775
 Frc consts  --      5.8244                 5.8153                 6.0479
 IR Inten    --     14.3007                13.0905                15.0080

                     82                     83                     84
                      A                      A                      A
 Frequencies --   3101.3583              3103.4477              3110.8325
 Red. masses --      1.0963                 1.1001                 1.0996
 Frc consts  --      6.2126                 6.2426                 6.2696
 IR Inten    --     23.9091                12.1024                31.1749

                     85                     86                     87
                      A                      A                      A
 Frequencies --   3135.6208              3140.3947              3149.4549
 Red. masses --      1.1022                 1.1020                 1.1021
 Frc consts  --      6.3848                 6.4035                 6.4409
 IR Inten    --     16.0441                15.9393                22.1431

                     88                     89                     90
                      A                      A                      A
 Frequencies --   3157.4771              3161.8180              3177.7334
 Red. masses --      1.1019                 1.1026                 1.1021
 Frc consts  --      6.4726                 6.4942                 6.5573
 IR Inten    --     15.0619                 5.3983                 9.6346

                     91                     92                     93
                      A                      A                      A
 Frequencies --   3179.0975              3183.8310              3848.3179
 Red. masses --      1.1008                 1.0951                 1.0660
 Frc consts  --      6.5546                 6.5406                 9.3014
 IR Inten    --      5.7521                18.1946                28.0434

 - Thermochemistry -
 -------------------
 Temperature   298.150 Kelvin.  Pressure   1.00000 Atm.
 Atom     1 has atomic number  8 and mass  15.99491

 Molecular mass:   186.14940 amu.
 Principal axes and moments of inertia in atomic units:
                           1         2         3
     Eigenvalues --  1823.029342360.829473284.63178
           X            0.99701  -0.07706   0.00539
           Y            0.07703   0.99702   0.00482
           Z           -0.00574  -0.00439   0.99997
 This molecule is an asymmetric top.
 Rotational symmetry number  1.
 Warning -- assumption of classical behavior for rotation
           may cause significant error
 Rotational temperatures (Kelvin)      0.04751     0.03669     0.02637
 Rotational constants (GHZ):           0.98997     0.76445     0.54945
 Zero-point vibrational energy     781472.8 (Joules/Mol)
                                  186.77648 (Kcal/Mol)
 Warning -- explicit consideration of  25 degrees of freedom as
           vibrations may cause significant error
 Vibrational temperatures:     68.04   139.48   205.41   273.34   289.02
          (Kelvin)            344.71   351.45   356.20   387.44   403.98
                              413.17   448.48   460.54   467.12   489.19
                              532.80   554.15   602.34   633.09   645.68
                              683.43   774.61   787.69   826.35   872.06
                              975.74  1161.15  1189.04  1234.22  1310.16
                             1327.26  1367.91  1374.40  1381.94  1424.81
                             1458.31  1477.63  1517.20  1552.96  1560.90
                             1583.00  1621.07  1652.18  1687.39  1721.28
                             1774.17  1782.02  1810.80  1826.87  1845.66
                             1885.89  1898.84  1944.70  1995.90  2004.75
                             2012.21  2017.70  2033.01  2037.72  2046.15
                             2061.11  2110.04  2116.93  2122.26  2129.92
                             2138.83  2146.18  2150.65  2155.87  2159.15
                             2178.51  2184.92  2190.26  4367.42  4395.98
                             4407.13  4414.12  4419.91  4429.28  4435.11
                             4440.79  4462.16  4465.17  4475.79  4511.46
                             4518.33  4531.36  4542.91  4549.15  4572.05
                             4574.01  4580.82  5536.87

 Zero-point correction=                           0.297647 (Hartree/Particle)
 Thermal correction to Energy=                    0.311773
 Thermal correction to Enthalpy=                  0.312717
 Thermal correction to Gibbs Free Energy=         0.258181
 Sum of electronic and zero-point Energies=           -597.900807
 Sum of electronic and thermal Energies=              -597.886681
 Sum of electronic and thermal Enthalpies=            -597.885737
 Sum of electronic and thermal Free Energies=         -597.940273

                     E (Thermal)             CV                S
                      KCal/Mol        Cal/Mol-Kelvin    Cal/Mol-Kelvin
 Total                  195.641             56.542            114.782
 Electronic               0.000              0.000              1.377
 Translational            0.889              2.981             41.570
 Rotational               0.889              2.981             31.025
 Vibrational            193.863             50.580             40.809
 Vibration     1          0.595              1.979              4.928
 Vibration     2          0.603              1.951              3.515
 Vibration     3          0.616              1.910              2.766
 Vibration     4          0.633              1.854              2.228
 Vibration     5          0.638              1.839              2.125
 Vibration     6          0.657              1.780              1.806
 Vibration     7          0.660              1.772              1.772
 Vibration     8          0.661              1.767              1.748
 Vibration     9          0.674              1.730              1.601
 Vibration    10          0.680              1.709              1.529
 Vibration    11          0.684              1.698              1.491
 Vibration    12          0.700              1.651              1.353
 Vibration    13          0.706              1.635              1.310
 Vibration    14          0.709              1.626              1.287
 Vibration    15          0.720              1.596              1.212
 Vibration    16          0.742              1.533              1.078
 Vibration    17          0.754              1.502              1.019
 Vibration    18          0.782              1.430              0.897
 Vibration    19          0.800              1.383              0.827
 Vibration    20          0.808              1.364              0.800
 Vibration    21          0.832              1.305              0.724
 Vibration    22          0.893              1.165              0.569
 Vibration    23          0.903              1.145              0.549
 Vibration    24          0.931              1.087              0.496
 Vibration    25          0.965              1.019              0.439

                           ! Non-Optimized Parameters !

 1\1\GINC-BD22\Freq\UM062X\def2TZVP\C10H20N1O2(2)\MIYAO\09-Jan-2025\0\\
 #P Geom=AllCheck Guess=TCheck SCRF=Check GenChk UM062X/def2TZVP Freq\\
 data_set_3-catalyst-Mix_13_opt\\0,2\O,2.007020585,1.1300275882,-0.7666
 215259\N,1.0071836764,0.4897647625,-0.3169933885\C,-0.1342967251,1.366
 4511749,0.0909395743\C,1.224823599,-0.9381424435,0.068514012\C,-0.4587
 753049,2.2452227481,-1.1216882259\C,0.3485345332,2.2540895651,1.242601
 0139\C,1.2407063169,-1.0951680688,1.5920504375\C,2.5986217529,-1.34720
 55187,-0.4619528118\H,-1.255276998,2.9431414891,-0.8624068822\H,-0.785

 Normal termination of Gaussian 16 at Thu Jan  9 14:04:51 2025.
