 Gaussian 16, Revision C.01,
 Gaussian 16:  ES64L-G16RevC.01  3-Jul-2019

 ----------------------------------
 #p M062X/DEF2TZVP opt freq pop=NBO
 ----------------------------------

 -----------------------------
 data_set_3-catalyst-Mix_2_opt
 -----------------------------
 Symbolic Z-matrix:
 Charge =  0 Multiplicity = 2

 SCF Done:  E(UM062X) =  -860.803985954     A.U. after   17 cycles
 SCF Done:  E(UM062X) =  -860.815533744     A.U. after   16 cycles
 SCF Done:  E(UM062X) =  -860.813445010     A.U. after   16 cycles
 SCF Done:  E(UM062X) =  -860.814848840     A.U. after   16 cycles
 SCF Done:  E(UM062X) =  -860.816083738     A.U. after   10 cycles
 SCF Done:  E(UM062X) =  -860.816236119     A.U. after   16 cycles
 SCF Done:  E(UM062X) =  -860.816201430     A.U. after   13 cycles
 SCF Done:  E(UM062X) =  -860.816407280     A.U. after   14 cycles
 SCF Done:  E(UM062X) =  -860.816431440     A.U. after   12 cycles
 SCF Done:  E(UM062X) =  -860.816436108     A.U. after   12 cycles
 SCF Done:  E(UM062X) =  -860.816442167     A.U. after   13 cycles
 SCF Done:  E(UM062X) =  -860.816443698     A.U. after    8 cycles
 SCF Done:  E(UM062X) =  -860.816446539     A.U. after   12 cycles
 SCF Done:  E(UM062X) =  -860.816447439     A.U. after   12 cycles
 SCF Done:  E(UM062X) =  -860.816447914     A.U. after    8 cycles
 SCF Done:  E(UM062X) =  -860.816448030     A.U. after    8 cycles
 SCF Done:  E(UM062X) =  -860.816447915     A.U. after    8 cycles
 Optimization completed.
    -- Stationary point found.

 1\1\GINC-BD23\FOpt\UM062X\def2TZVP\C11H18N1O5(2)\MIYAO\10-Jan-2025\0\\
 #p M062X/DEF2TZVP opt freq pop=NBO\\data_set_3-catalyst-Mix_2_opt\\0,2
 \O,0.7641124818,-1.4721843536,-1.771130605\N,0.5351460711,-1.190026122
 4,-0.5612290176\C,-0.8635506545,-1.2412679104,-0.0939365403\C,-0.89482
 60908,-1.555387986,1.40240409\C,-0.0317697137,-0.5861704802,2.19281469
 84\C,1.407980736,-0.6616559907,1.7007534115\C,1.5947908486,-0.46405366
 67,0.1906551375\C,2.943106129,-1.0245705565,-0.2469245715\C,1.55380179
 26,1.0173292,-0.2423927078\C,-1.6093833679,-2.3164012093,-0.8852861076

 Normal termination of Gaussian 16 at Fri Jan 10 02:18:23 2025.

 --------------------------------------------------------------------
 #P Geom=AllCheck Guess=TCheck SCRF=Check GenChk UM062X/def2TZVP Freq
 --------------------------------------------------------------------

 Structure from the checkpoint file:  "outputs/data_set_3-catalyst-Mix_2_opt.chk"
 -----------------------------
 data_set_3-catalyst-Mix_2_opt
 -----------------------------
 Charge =  0 Multiplicity = 2

                         Standard orientation:
 ---------------------------------------------------------------------
 Center     Atomic      Atomic             Coordinates (Angstroms)
 Number     Number       Type             X           Y           Z
 ---------------------------------------------------------------------
      1          8           0        0.686720   -1.506380   -1.784659
      2          7           0        0.474016   -1.217331   -0.573417
      3          6           0       -0.925633   -1.187319   -0.107129
      4          6           0       -0.976870   -1.506776    1.387531
      5          6           0       -0.058097   -0.594986    2.183454
      6          6           0        1.374979   -0.753821    1.691755
      7          6           0        1.574522   -0.559896    0.182810
      8          6           0        2.887297   -1.197708   -0.256995
      9          6           0        1.622491    0.923518   -0.242500
     10          6           0       -1.733720   -2.211835   -0.904484
     11          6           0       -1.523177    0.193482   -0.411076
     12          8           0        2.135242    1.306507   -1.251185
     13          8           0        1.045875    1.741763    0.649427
     14          8           0       -1.043585    1.006795   -1.147239
     15          8           0       -2.694138    0.365634    0.214124
     16          6           0        0.946316    3.101975    0.228495
     17          6           0       -3.351050    1.603402   -0.059042
     18          1           0       -0.666321   -2.548767    1.507491
     19          1           0       -2.009120   -1.426761    1.724879
     20          1           0       -0.105812   -0.851017    3.242987
     21          1           0       -0.383809    0.442097    2.087965
     22          1           0        1.707090   -1.769675    1.924065
     23          1           0        2.044427   -0.069388    2.213757
     24          1           0        3.074968   -0.995568   -1.306235
     25          1           0        2.838465   -2.274216   -0.096524
     26          1           0        3.700280   -0.782949    0.340570
     27          1           0       -2.748974   -2.240658   -0.511217
     28          1           0       -1.273979   -3.193298   -0.794337
     29          1           0       -1.753147   -1.959067   -1.961400
     30          1           0        0.361944    3.155330   -0.689054
     31          1           0        1.937126    3.517061    0.051155
     32          1           0        0.450093    3.629049    1.038526
     33          1           0       -2.722504    2.437397    0.250865
     34          1           0       -4.272885    1.584182    0.513733
     35          1           0       -3.559216    1.692803   -1.123968
 ---------------------------------------------------------------------

 SCF Done:  E(UM062X) =  -860.816447915     A.U. after    1 cycles

 The electronic state is 2-A.
 Alpha  occ. eigenvalues --  -19.68583 -19.67115 -19.63041 -19.62778 -19.61088
 Alpha  occ. eigenvalues --  -14.84567 -10.68049 -10.66573 -10.60586 -10.60140
 Alpha  occ. eigenvalues --  -10.60009 -10.58569 -10.54946 -10.54775 -10.54256
 Alpha  occ. eigenvalues --  -10.53796 -10.52452  -1.25569  -1.24114  -1.23268
 Alpha  occ. eigenvalues --   -1.15771  -1.14247  -0.99246  -0.93289  -0.88115
 Alpha  occ. eigenvalues --   -0.84479  -0.82615  -0.81605  -0.78440  -0.72684
 Alpha  occ. eigenvalues --   -0.71245  -0.69493  -0.66647  -0.64213  -0.61996
 Alpha  occ. eigenvalues --   -0.59705  -0.58451  -0.57752  -0.57248  -0.56092
 Alpha  occ. eigenvalues --   -0.54870  -0.54341  -0.53656  -0.52541  -0.51148
 Alpha  occ. eigenvalues --   -0.50578  -0.48936  -0.48406  -0.47476  -0.46615
 Alpha  occ. eigenvalues --   -0.46153  -0.45740  -0.44999  -0.44422  -0.43728
 Alpha  occ. eigenvalues --   -0.43657  -0.42847  -0.40675  -0.40157  -0.39168
 Alpha  occ. eigenvalues --   -0.38651  -0.37416  -0.36434  -0.35688  -0.33912
 Alpha  occ. eigenvalues --   -0.26480
 Alpha virt. eigenvalues --    0.03740   0.05072   0.05331   0.06532   0.08139
 Alpha virt. eigenvalues --    0.09006   0.09544   0.10382   0.11118   0.11878
 Alpha virt. eigenvalues --    0.12697   0.12817   0.13553   0.14305   0.14742

  Beta  occ. eigenvalues --  -19.68571 -19.67106 -19.62778 -19.61880 -19.61068
  Beta  occ. eigenvalues --  -14.83849 -10.67997 -10.66526 -10.60617 -10.60138
  Beta  occ. eigenvalues --  -10.60042 -10.58568 -10.54937 -10.54771 -10.54258
  Beta  occ. eigenvalues --  -10.53790 -10.52442  -1.25419  -1.23817  -1.20670
  Beta  occ. eigenvalues --   -1.15724  -1.14182  -0.98028  -0.93115  -0.87386
  Beta  occ. eigenvalues --   -0.83996  -0.82464  -0.80996  -0.78387  -0.72431
  Beta  occ. eigenvalues --   -0.70508  -0.69207  -0.66300  -0.63880  -0.61669
  Beta  occ. eigenvalues --   -0.59377  -0.57844  -0.57271  -0.56772  -0.55859
  Beta  occ. eigenvalues --   -0.54516  -0.53873  -0.52463  -0.51809  -0.50918
  Beta  occ. eigenvalues --   -0.49863  -0.48883  -0.47525  -0.47126  -0.46315
  Beta  occ. eigenvalues --   -0.45724  -0.45110  -0.44391  -0.43952  -0.43559
  Beta  occ. eigenvalues --   -0.42767  -0.41595  -0.40225  -0.39888  -0.39131
  Beta  occ. eigenvalues --   -0.38350  -0.37373  -0.35976  -0.34769  -0.32187
  Beta virt. eigenvalues --   -0.01482   0.03884   0.05331   0.05948   0.06509
  Beta virt. eigenvalues --    0.08172   0.09011   0.09575   0.10425   0.11162
  Beta virt. eigenvalues --    0.11882   0.12723   0.12856   0.13566   0.14371

 Mulliken charges and spin densities:
               1          2
     1  O   -0.343746   0.576113
     2  N    0.154361   0.405178
     3  C    0.139431  -0.032738
     4  C   -0.340031   0.018899
     5  C   -0.265123  -0.011946
     6  C   -0.336746   0.016394
     7  C    0.067902  -0.016561
     8  C   -0.432683  -0.004691
     9  C    0.275644   0.018499
    10  C   -0.438709  -0.004935
    11  C    0.276088   0.028029
    12  O   -0.290382   0.007921
    13  O   -0.271624   0.001034
    14  O   -0.310218  -0.000048
    15  O   -0.277662   0.001336
    16  C   -0.289568   0.002952
    17  C   -0.261935   0.003302
    18  H    0.168246  -0.004434
    19  H    0.174107   0.000550
    20  H    0.150607   0.000582
    21  H    0.173253  -0.000189
    22  H    0.171107  -0.004273
    23  H    0.173641  -0.000527
    24  H    0.199421   0.000085
    25  H    0.152293   0.000614
    26  H    0.142143  -0.000953
    27  H    0.155124  -0.001202
    28  H    0.164328   0.001335
    29  H    0.187523   0.000022
    30  H    0.181384  -0.000108
    31  H    0.156756  -0.000009
    32  H    0.138382  -0.000044
    33  H    0.148387  -0.000163
    34  H    0.148496   0.000104
    35  H    0.159805  -0.000127
 Sum of Mulliken charges =  -0.00000   1.00000

 Dipole moment (field-independent basis, Debye):
    X=             -3.0109    Y=              0.4722    Z=              4.8559  Tot=              5.7331
 Quadrupole moment (field-independent basis, Debye-Ang):
   XX=            -94.2355   YY=            -93.6974   ZZ=           -108.9686
   XY=             -3.6346   XZ=              6.5713   YZ=             -0.0214

  Exact polarizability:     152.264      -2.158     147.536      -5.011       2.151     134.690
 Approx polarizability:     171.493       0.903     172.903     -11.342       0.051     179.256

 Summary of Natural Population Analysis:

                                       Natural Population
                Natural  -----------------------------------------------
    Atom  No    Charge         Core      Valence    Rydberg      Total
 -----------------------------------------------------------------------
      O    1    0.09931      0.99993     2.89535    0.00541     3.90069
      N    2    0.22496      0.99972     2.25526    0.02006     3.27504
      C    3   -0.01369      0.99956     2.00321    0.01092     3.01369
      C    4   -0.19535      0.99969     2.18815    0.00752     3.19535
      C    5   -0.20212      0.99972     2.19593    0.00647     3.20212
      C    6   -0.19697      0.99970     2.18946    0.00782     3.19697
      C    7   -0.01395      0.99956     2.00338    0.01101     3.01395
      C    8   -0.29135      0.99972     2.28473    0.00691     3.29135
      C    9    0.41326      0.99968     1.56788    0.01918     2.58674
      C   10   -0.29298      0.99971     2.28674    0.00653     3.29298
      C   11    0.41136      0.99967     1.56885    0.02013     2.58864
      O   12   -0.28304      0.99988     3.26789    0.01528     4.28304
      O   13   -0.25811      0.99987     3.24515    0.01308     4.25811
      O   14   -0.29586      0.99987     3.28025    0.01573     4.29586
      O   15   -0.25330      0.99987     3.24063    0.01280     4.25330
      C   16   -0.12919      0.99965     2.12238    0.00716     3.12919
      C   17   -0.12639      0.99965     2.11977    0.00697     3.12639
      H   18    0.10379      0.00000     0.39542    0.00079     0.39621
      H   19    0.11555      0.00000     0.38392    0.00053     0.38445
      H   20    0.10831      0.00000     0.39113    0.00056     0.39169
      H   21    0.10837      0.00000     0.39093    0.00070     0.39163
      H   22    0.10369      0.00000     0.39553    0.00078     0.39631
      H   23    0.11266      0.00000     0.38680    0.00054     0.38734
      H   24    0.12682      0.00000     0.37267    0.00051     0.37318
      H   25    0.10581      0.00000     0.39362    0.00057     0.39419
      H   26    0.10396      0.00000     0.39562    0.00042     0.39604
      H   27    0.10781      0.00000     0.39176    0.00043     0.39219
      H   28    0.11142      0.00000     0.38798    0.00060     0.38858
      H   29    0.11938      0.00000     0.38012    0.00050     0.38062
      H   30    0.10245      0.00000     0.39676    0.00079     0.39755
      H   31    0.09529      0.00000     0.40395    0.00075     0.40471
      H   32    0.09206      0.00000     0.40732    0.00062     0.40794
      H   33    0.09355      0.00000     0.40566    0.00079     0.40645
      H   34    0.09627      0.00000     0.40317    0.00057     0.40373
      H   35    0.09623      0.00000     0.40301    0.00076     0.40377
 =======================================================================
   * Total *    0.50000     16.99542    47.80040    0.20418    65.00000

                      1                      2                      3
                      A                      A                      A
 Frequencies --      8.2183                65.6385                70.2165
 Red. masses --      5.2751                 4.6198                 4.6692
 Frc consts  --      0.0002                 0.0117                 0.0136
 IR Inten    --      0.3362                 0.9784                 0.8241

                      4                      5                      6
                      A                      A                      A
 Frequencies --    118.2080               120.3916               128.5128
 Red. masses --      3.4101                 3.6494                 5.0648
 Frc consts  --      0.0281                 0.0312                 0.0493
 IR Inten    --      0.2752                 2.9669                 1.6760

                      7                      8                      9
                      A                      A                      A
 Frequencies --    161.5035               168.0724               181.3342
 Red. masses --      3.2046                 1.2737                 1.2050
 Frc consts  --      0.0492                 0.0212                 0.0233
 IR Inten    --      2.0017                 0.2538                 1.1638

                     10                     11                     12
                      A                      A                      A
 Frequencies --    200.2014               220.1829               240.4560
 Red. masses --      3.3459                 3.3909                 2.0541
 Frc consts  --      0.0790                 0.0969                 0.0700
 IR Inten    --      1.6744                 2.1056                 5.0251

                     13                     14                     15
                      A                      A                      A
 Frequencies --    251.4171               258.5875               268.5412
 Red. masses --      1.1700                 1.7489                 2.9117
 Frc consts  --      0.0436                 0.0689                 0.1237
 IR Inten    --      0.0794                 0.9455                 1.8704

                     16                     17                     18
                      A                      A                      A
 Frequencies --    294.8554               303.5604               316.7563
 Red. masses --      2.7588                 2.0903                 3.1359
 Frc consts  --      0.1413                 0.1135                 0.1854
 IR Inten    --      4.9935                 0.8578                 3.3730

                     19                     20                     21
                      A                      A                      A
 Frequencies --    343.0223               374.6146               376.3238
 Red. masses --      2.5346                 3.5929                 3.3529
 Frc consts  --      0.1757                 0.2971                 0.2798
 IR Inten    --      4.0889                 2.3652                 9.5415

                     22                     23                     24
                      A                      A                      A
 Frequencies --    403.2938               413.0967               431.6279
 Red. masses --      4.2555                 3.0488                 6.1829
 Frc consts  --      0.4078                 0.3065                 0.6787
 IR Inten    --      4.9277                 4.0007                14.1449

                     25                     26                     27
                      A                      A                      A
 Frequencies --    474.7975               490.3698               536.7465
 Red. masses --      6.0198                 4.3784                 3.6808
 Frc consts  --      0.7996                 0.6203                 0.6248
 IR Inten    --      4.1305                 7.4227                 4.2234

                     28                     29                     30
                      A                      A                      A
 Frequencies --    597.5541               611.3426               652.7520
 Red. masses --      4.7375                 2.3092                 3.0835
 Frc consts  --      0.9967                 0.5085                 0.7741
 IR Inten    --      6.8435                 5.3836                 7.6173

                     31                     32                     33
                      A                      A                      A
 Frequencies --    756.4229               783.4377               787.5372
 Red. masses --      3.6102                 4.8414                 6.1161
 Frc consts  --      1.2171                 1.7508                 2.2350
 IR Inten    --      8.2108                10.7237                 2.0942

                     34                     35                     36
                      A                      A                      A
 Frequencies --    847.0354               853.2964               886.0896
 Red. masses --      3.6889                 3.1648                 1.6660
 Frc consts  --      1.5594                 1.3577                 0.7707
 IR Inten    --      1.0179                25.9335                 3.0501

                     37                     38                     39
                      A                      A                      A
 Frequencies --    905.6347               941.0535               942.1575
 Red. masses --      2.2924                 1.9363                 2.3512
 Frc consts  --      1.1078                 1.0103                 1.2296
 IR Inten    --      0.5953                 0.3905                 2.2390

                     40                     41                     42
                      A                      A                      A
 Frequencies --   1004.4277              1027.3949              1049.6757
 Red. masses --      1.5100                 2.9787                 3.3790
 Frc consts  --      0.8976                 1.8525                 2.1935
 IR Inten    --      6.1455                 1.0306                 1.6789

                     43                     44                     45
                      A                      A                      A
 Frequencies --   1058.9191              1063.6282              1087.2659
 Red. masses --      1.9780                 3.0552                 1.5154
 Frc consts  --      1.3068                 2.0365                 1.0555
 IR Inten    --     13.8523                15.7056                 1.4779

                     46                     47                     48
                      A                      A                      A
 Frequencies --   1113.7954              1158.0130              1172.3338
 Red. masses --      1.5022                 3.4590                 3.3629
 Frc consts  --      1.0980                 2.7329                 2.7231
 IR Inten    --     12.7693                 2.7524                11.5029

                     49                     50                     51
                      A                      A                      A
 Frequencies --   1187.3065              1188.1619              1193.0509
 Red. masses --      1.4570                 1.2886                 2.2431
 Frc consts  --      1.2102                 1.0719                 1.8811
 IR Inten    --     38.2092                 1.4376               135.2170

                     52                     53                     54
                      A                      A                      A
 Frequencies --   1207.0037              1220.2920              1227.4161
 Red. masses --      1.8987                 2.1777                 1.7213
 Frc consts  --      1.6298                 1.9107                 1.5279
 IR Inten    --     38.7753                 9.2793                19.6515

                     55                     56                     57
                      A                      A                      A
 Frequencies --   1242.0272              1255.6137              1282.8408
 Red. masses --      2.1641                 2.8330                 2.8088
 Frc consts  --      1.9669                 2.6315                 2.7234
 IR Inten    --     24.3976                14.1661               378.1469

                     58                     59                     60
                      A                      A                      A
 Frequencies --   1288.9060              1326.2182              1344.7685
 Red. masses --      2.1317                 2.9582                 1.6445
 Frc consts  --      2.0865                 3.0656                 1.7522
 IR Inten    --     28.8722                25.8073                85.7940

                     61                     62                     63
                      A                      A                      A
 Frequencies --   1376.4442              1389.9384              1396.7015
 Red. masses --      1.4679                 1.5847                 1.5610
 Frc consts  --      1.6386                 1.8038                 1.7942
 IR Inten    --      1.2339                 2.8114                 0.3959

                     64                     65                     66
                      A                      A                      A
 Frequencies --   1409.2438              1411.3036              1474.6249
 Red. masses --      1.2574                 1.2775                 2.2174
 Frc consts  --      1.4713                 1.4991                 2.8409
 IR Inten    --      5.4552                17.5687                11.0495

                     67                     68                     69
                      A                      A                      A
 Frequencies --   1477.2540              1479.4365              1480.6908
 Red. masses --      1.2744                 1.1375                 1.1402
 Frc consts  --      1.6385                 1.4669                 1.4728
 IR Inten    --      2.6455                 6.2191                 3.9215

                     70                     71                     72
                      A                      A                      A
 Frequencies --   1483.0965              1488.1703              1492.2149
 Red. masses --      1.2055                 1.1083                 1.0421
 Frc consts  --      1.5623                 1.4461                 1.3672
 IR Inten    --      2.0562                 0.6546                 0.9160

                     73                     74                     75
                      A                      A                      A
 Frequencies --   1493.9552              1497.3225              1501.4057
 Red. masses --      1.0433                 1.1594                 1.0818
 Frc consts  --      1.3720                 1.5315                 1.4368
 IR Inten    --     17.3045                31.7415                 9.0496

                     76                     77                     78
                      A                      A                      A
 Frequencies --   1503.8347              1504.7268              1506.7746
 Red. masses --      1.0836                 1.1012                 1.0603
 Frc consts  --      1.4438                 1.4690                 1.4183
 IR Inten    --      5.4360                21.5600                 1.0666

                     79                     80                     81
                      A                      A                      A
 Frequencies --   1507.6352              1850.3452              1861.7776
 Red. masses --      1.1079                12.1482                12.0637
 Frc consts  --      1.4836                24.5057                24.6369
 IR Inten    --     14.4075               124.2908               306.6862

                     82                     83                     84
                      A                      A                      A
 Frequencies --   3062.6707              3064.8698              3079.2967
 Red. masses --      1.0655                 1.0683                 1.0388
 Frc consts  --      5.8886                 5.9125                 5.8037
 IR Inten    --     11.0108                15.7800                19.3243

                     85                     86                     87
                      A                      A                      A
 Frequencies --   3083.3273              3083.7898              3083.8459
 Red. masses --      1.0447                 1.0462                 1.0298
 Frc consts  --      5.8519                 5.8618                 5.7703
 IR Inten    --     43.2329                14.1902                16.8865

                     88                     89                     90
                      A                      A                      A
 Frequencies --   3085.4628              3121.0004              3129.0132
 Red. masses --      1.0348                 1.0979                 1.1023
 Frc consts  --      5.8041                 6.3006                 6.3586
 IR Inten    --     10.3173                12.9872                18.5553

                     91                     92                     93
                      A                      A                      A
 Frequencies --   3141.3123              3152.4452              3158.7561
 Red. masses --      1.0974                 1.1025                 1.1062
 Frc consts  --      6.3804                 6.4552                 6.5031
 IR Inten    --      9.7293                13.8059                12.1626

                     94                     95                     96
                      A                      A                      A
 Frequencies --   3163.3148              3164.9808              3182.8154
 Red. masses --      1.1065                 1.1035                 1.1032
 Frc consts  --      6.5239                 6.5125                 6.5847
 IR Inten    --      8.6485                 9.6480                 2.5933

                     97                     98                     99
                      A                      A                      A
 Frequencies --   3187.6425              3195.8604              3203.4436
 Red. masses --      1.1072                 1.1066                 1.1001
 Frc consts  --      6.6284                 6.6588                 6.6512
 IR Inten    --      9.6585                 9.0103                 0.4428

 - Thermochemistry -
 -------------------
 Temperature   298.150 Kelvin.  Pressure   1.00000 Atm.
 Atom     1 has atomic number  8 and mass  15.99491

 Molecular mass:   244.11850 amu.
 Principal axes and moments of inertia in atomic units:
                           1         2         3
     Eigenvalues --  2876.473143661.108874561.42186
           X            0.99938  -0.03250   0.01343
           Y            0.03260   0.99944  -0.00697
           Z           -0.01320   0.00740   0.99989
 This molecule is an asymmetric top.
 Rotational symmetry number  1.
 Warning -- assumption of classical behavior for rotation
           may cause significant error
 Rotational temperatures (Kelvin)      0.03011     0.02366     0.01899
 Rotational constants (GHZ):           0.62741     0.49295     0.39565
 Zero-point vibrational energy     774071.6 (Joules/Mol)
                                  185.00755 (Kcal/Mol)
 Warning -- explicit consideration of  29 degrees of freedom as
           vibrations may cause significant error
 Vibrational temperatures:     11.82    94.44   101.03   170.07   173.22
          (Kelvin)            184.90   232.37   241.82   260.90   288.05
                              316.79   345.96   361.73   372.05   386.37
                              424.23   436.76   455.74   493.53   538.99
                              541.45   580.25   594.35   621.02   683.13
                              705.53   772.26   859.75   879.59   939.16
                             1088.32  1127.19  1133.09  1218.69  1227.70
                             1274.89  1303.01  1353.97  1355.55  1445.15
                             1478.19  1510.25  1523.55  1530.32  1564.33
                             1602.50  1666.12  1686.73  1708.27  1709.50
                             1716.53  1736.61  1755.73  1765.98  1787.00
                             1806.55  1845.72  1854.45  1908.13  1934.82
                             1980.40  1999.81  2009.54  2027.59  2030.55
                             2121.66  2125.44  2128.58  2130.38  2133.85
                             2141.15  2146.96  2149.47  2154.31  2160.19
                             2163.68  2164.97  2167.91  2169.15  2662.23
                             2678.68  4406.50  4409.66  4430.42  4436.22
                             4436.89  4436.97  4439.29  4490.42  4501.95
                             4519.65  4535.67  4544.75  4551.30  4553.70
                             4579.36  4586.31  4598.13  4609.04

 Zero-point correction=                           0.294828 (Hartree/Particle)
 Thermal correction to Energy=                    0.312497
 Thermal correction to Enthalpy=                  0.313441
 Thermal correction to Gibbs Free Energy=         0.248592
 Sum of electronic and zero-point Energies=           -860.521620
 Sum of electronic and thermal Energies=              -860.503951
 Sum of electronic and thermal Enthalpies=            -860.503007
 Sum of electronic and thermal Free Energies=         -860.567856

                     E (Thermal)             CV                S
                      KCal/Mol        Cal/Mol-Kelvin    Cal/Mol-Kelvin
 Total                  196.095             66.239            136.488
 Electronic               0.000              0.000              1.377
 Translational            0.889              2.981             42.378
 Rotational               0.889              2.981             32.241
 Vibrational            194.317             60.278             60.491
 Vibration     1          0.593              1.987              8.401
 Vibration     2          0.597              1.971              4.280
 Vibration     3          0.598              1.968              4.147
 Vibration     4          0.608              1.934              3.129
 Vibration     5          0.609              1.932              3.094
 Vibration     6          0.611              1.925              2.968
 Vibration     7          0.622              1.890              2.532
 Vibration     8          0.625              1.882              2.457
 Vibration     9          0.630              1.865              2.315
 Vibration    10          0.638              1.840              2.131
 Vibration    11          0.647              1.810              1.958
 Vibration    12          0.658              1.778              1.800
 Vibration    13          0.663              1.760              1.721
 Vibration    14          0.667              1.748              1.671
 Vibration    15          0.673              1.731              1.606
 Vibration    16          0.689              1.683              1.446
 Vibration    17          0.695              1.667              1.397
 Vibration    18          0.704              1.642              1.327
 Vibration    19          0.722              1.589              1.198
 Vibration    20          0.746              1.524              1.061
 Vibration    21          0.747              1.521              1.054
 Vibration    22          0.769              1.463              0.951
 Vibration    23          0.777              1.442              0.916
 Vibration    24          0.793              1.401              0.853
 Vibration    25          0.832              1.306              0.724
 Vibration    26          0.846              1.271              0.683
 Vibration    27          0.892              1.169              0.572
 Vibration    28          0.955              1.037              0.454
 Vibration    29          0.970              1.008              0.431

 Optimization completed.
    -- Stationary point found.

 1\1\GINC-BD23\Freq\UM062X\def2TZVP\C11H18N1O5(2)\MIYAO\10-Jan-2025\0\\
 #P Geom=AllCheck Guess=TCheck SCRF=Check GenChk UM062X/def2TZVP Freq\\
 data_set_3-catalyst-Mix_2_opt\\0,2\O,0.7641124818,-1.4721843536,-1.771
 130605\N,0.5351460711,-1.1900261224,-0.5612290176\C,-0.8635506545,-1.2
 412679104,-0.0939365403\C,-0.8948260908,-1.555387986,1.40240409\C,-0.0
 317697137,-0.5861704802,2.1928146984\C,1.407980736,-0.6616559907,1.700
 7534115\C,1.5947908486,-0.4640536667,0.1906551375\C,2.943106129,-1.024
 5705565,-0.2469245715\C,1.5538017926,1.0173292,-0.2423927078\C,-1.6093

 Normal termination of Gaussian 16 at Fri Jan 10 05:04:27 2025.
