 Gaussian 16, Revision C.01,
 Gaussian 16:  ES64L-G16RevC.01  3-Jul-2019

 ----------------------------------
 #p M062X/DEF2TZVP opt freq pop=NBO
 ----------------------------------

 -----------------------------
 data_set_3-catalyst-Mix_9_opt
 -----------------------------
 Symbolic Z-matrix:
 Charge =  0 Multiplicity = 2

 SCF Done:  E(UM062X) =  -557.691182097     A.U. after   17 cycles
 SCF Done:  E(UM062X) =  -557.697336751     A.U. after   13 cycles
 SCF Done:  E(UM062X) =  -557.697543754     A.U. after   14 cycles
 SCF Done:  E(UM062X) =  -557.697562276     A.U. after   13 cycles
 SCF Done:  E(UM062X) =  -557.697565634     A.U. after   12 cycles
 SCF Done:  E(UM062X) =  -557.697564928     A.U. after    8 cycles
 SCF Done:  E(UM062X) =  -557.697564820     A.U. after    9 cycles
 SCF Done:  E(UM062X) =  -557.697565925     A.U. after   10 cycles
 SCF Done:  E(UM062X) =  -557.697566153     A.U. after    9 cycles
 Optimization completed.
    -- Stationary point found.
 Normal termination of Gaussian 16 at Fri Jan 10 05:25:37 2025.

 --------------------------------------------------------------------
 #P Geom=AllCheck Guess=TCheck SCRF=Check GenChk UM062X/def2TZVP Freq
 --------------------------------------------------------------------

 Structure from the checkpoint file:  "outputs/data_set_3-catalyst-Mix_9_opt.chk"
 -----------------------------
 data_set_3-catalyst-Mix_9_opt
 -----------------------------
 Charge =  0 Multiplicity = 2

                         Standard orientation:
 ---------------------------------------------------------------------
 Center     Atomic      Atomic             Coordinates (Angstroms)
 Number     Number       Type             X           Y           Z
 ---------------------------------------------------------------------
      1          8           0       -0.000949   -2.274117   -0.000321
      2          7           0       -0.000438   -1.008830   -0.000084
      3          6           0       -1.309107   -0.310838    0.002129
      4          6           0       -1.138447    1.089111   -0.590072
      5          6           0        0.000840    1.889204    0.000050
      6          6           0        1.139275    1.088067    0.590368
      7          6           0        1.308812   -0.311928   -0.002059
      8          6           0       -1.829872   -0.244819    1.441240
      9          6           0       -2.281397   -1.109050   -0.860184
     10          6           0        2.280370   -1.111104    0.860183
     11          6           0        1.829707   -0.246064   -1.441127
     12          8           0        0.001471    3.092143   -0.000145
     13          1           0       -2.058187    1.663606   -0.476153
     14          1           0       -0.945735    1.009199   -1.664879
     15          1           0        0.946226    1.008111    1.665110
     16          1           0        2.059549    1.661763    0.476759
     17          1           0       -2.844919    0.155226    1.452775
     18          1           0       -1.207447    0.391489    2.071729
     19          1           0       -1.843504   -1.248670    1.865655
     20          1           0       -3.226069   -0.567920   -0.928343
     21          1           0       -2.461106   -2.090707   -0.428974
     22          1           0       -1.878377   -1.244324   -1.864413
     23          1           0        1.877187   -1.246170    1.864375
     24          1           0        3.225512   -0.570810    0.928467
     25          1           0        2.459242   -2.092852    0.428833
     26          1           0        2.845048    0.153236   -1.452554
     27          1           0        1.207770    0.390808   -2.071532
     28          1           0        1.842608   -1.249854   -1.865707
 ---------------------------------------------------------------------

 SCF Done:  E(UM062X) =  -557.697566153     A.U. after    1 cycles

 The electronic state is 2-A.
 Alpha  occ. eigenvalues --  -19.62885 -19.62756 -14.84052 -10.63942 -10.60166
 Alpha  occ. eigenvalues --  -10.60164 -10.55701 -10.55700 -10.54059 -10.54059
 Alpha  occ. eigenvalues --  -10.53366 -10.53366  -1.23501  -1.18265  -0.99497
 Alpha  occ. eigenvalues --   -0.94179  -0.85640  -0.82904  -0.81504  -0.79722
 Alpha  occ. eigenvalues --   -0.79426  -0.69924  -0.65313  -0.60096  -0.60021
 Alpha  occ. eigenvalues --   -0.58514  -0.57110  -0.54929  -0.53018  -0.52156
 Alpha  occ. eigenvalues --   -0.51592  -0.50162  -0.48694  -0.47815  -0.46870
 Alpha  occ. eigenvalues --   -0.46625  -0.46029  -0.45474  -0.44848  -0.44068
 Alpha  occ. eigenvalues --   -0.42061  -0.41313  -0.41138  -0.40709  -0.34242
 Alpha  occ. eigenvalues --   -0.32752  -0.26190
 Alpha virt. eigenvalues --    0.00875   0.04417   0.07640   0.08567   0.08708
 Alpha virt. eigenvalues --    0.10388   0.11184   0.12267   0.12714   0.12818
 Alpha virt. eigenvalues --    0.13354   0.14393   0.14802   0.15995   0.16428

  Beta  occ. eigenvalues --  -19.62756 -19.61803 -14.83237 -10.63943 -10.60208
  Beta  occ. eigenvalues --  -10.60207 -10.55693 -10.55692 -10.54019 -10.54018
  Beta  occ. eigenvalues --  -10.53353 -10.53353  -1.20526  -1.18256  -0.98242
  Beta  occ. eigenvalues --   -0.94006  -0.84930  -0.81398  -0.81354  -0.79584
  Beta  occ. eigenvalues --   -0.79283  -0.69413  -0.65083  -0.59785  -0.58928
  Beta  occ. eigenvalues --   -0.57135  -0.56620  -0.53335  -0.52546  -0.51544
  Beta  occ. eigenvalues --   -0.50596  -0.49761  -0.48558  -0.47363  -0.46804
  Beta  occ. eigenvalues --   -0.46426  -0.45447  -0.44909  -0.43949  -0.43447
  Beta  occ. eigenvalues --   -0.41121  -0.41099  -0.40939  -0.37917  -0.32923
  Beta  occ. eigenvalues --   -0.32349
  Beta virt. eigenvalues --   -0.00801   0.00908   0.04448   0.07664   0.08645
  Beta virt. eigenvalues --    0.08809   0.10440   0.11206   0.12289   0.12641
  Beta virt. eigenvalues --    0.12876   0.13459   0.14424   0.15144   0.16019

 Mulliken charges and spin densities:
               1          2
     1  O   -0.392603   0.527239
     2  N    0.204187   0.457469
     3  C   -0.012559  -0.016141
     4  C   -0.359043   0.008467
     5  C    0.230531  -0.008341
     6  C   -0.359028   0.008448
     7  C   -0.012584  -0.016115
     8  C   -0.424358   0.023953
     9  C   -0.411699  -0.000120
    10  C   -0.411691  -0.000123
    11  C   -0.424357   0.023944
    12  O   -0.272010   0.000039
    13  H    0.182511   0.000623
    14  H    0.194744  -0.002496
    15  H    0.194743  -0.002494
    16  H    0.182507   0.000621
    17  H    0.153014   0.002713
    18  H    0.140845  -0.001205
    19  H    0.177555  -0.003388
    20  H    0.144508  -0.001359
    21  H    0.176648  -0.000169
    22  H    0.152780   0.000922
    23  H    0.152772   0.000923
    24  H    0.144508  -0.001360
    25  H    0.176653  -0.000169
    26  H    0.153013   0.002712
    27  H    0.140856  -0.001204
    28  H    0.177555  -0.003388
 Sum of Mulliken charges =  -0.00000   1.00000

 Dipole moment (field-independent basis, Debye):
    X=             -0.0004    Y=             -0.1877    Z=              0.0009  Tot=              0.1877
 Quadrupole moment (field-independent basis, Debye-Ang):
   XX=            -67.1433   YY=            -95.1916   ZZ=            -71.3199
   XY=             -0.0128   XZ=              0.0668   YZ=             -0.0002

  Exact polarizability:     120.383       0.001     120.296       1.367      -0.001     100.516
 Approx polarizability:     134.419       0.007     149.704       0.929       0.000     126.410

 Summary of Natural Population Analysis:

                                       Natural Population
                Natural  -----------------------------------------------
    Atom  No    Charge         Core      Valence    Rydberg      Total
 -----------------------------------------------------------------------
      O    1    0.04851      0.99993     2.94622    0.00534     3.95149
      N    2    0.25041      0.99971     2.22963    0.02025     3.24959
      C    3    0.03697      0.99966     1.95510    0.00826     2.96303
      C    4   -0.26131      0.99962     2.25272    0.00897     3.26131
      C    5    0.30201      0.99970     1.68341    0.01488     2.69799
      C    6   -0.26131      0.99962     2.25271    0.00897     3.26131
      C    7    0.03698      0.99966     1.95509    0.00826     2.96302
      C    8   -0.29236      0.99969     2.28635    0.00632     3.29236
      C    9   -0.29332      0.99970     2.28685    0.00677     3.29332
      C   10   -0.29332      0.99970     2.28685    0.00677     3.29332
      C   11   -0.29236      0.99969     2.28635    0.00632     3.29236
      O   12   -0.26144      0.99989     3.24761    0.01394     4.26144
      H   13    0.12165      0.00000     0.37767    0.00068     0.37835
      H   14    0.12039      0.00000     0.37893    0.00068     0.37961
      H   15    0.12039      0.00000     0.37893    0.00068     0.37961
      H   16    0.12165      0.00000     0.37767    0.00068     0.37835
      H   17    0.10748      0.00000     0.39207    0.00046     0.39252
      H   18    0.10139      0.00000     0.39806    0.00055     0.39861
      H   19    0.11310      0.00000     0.38638    0.00052     0.38690
      H   20    0.10292      0.00000     0.39665    0.00043     0.39708
      H   21    0.11657      0.00000     0.38287    0.00056     0.38343
      H   22    0.10676      0.00000     0.39272    0.00052     0.39324
      H   23    0.10676      0.00000     0.39272    0.00052     0.39324
      H   24    0.10292      0.00000     0.39665    0.00043     0.39708
      H   25    0.11657      0.00000     0.38287    0.00056     0.38343
      H   26    0.10748      0.00000     0.39207    0.00046     0.39252
      H   27    0.10139      0.00000     0.39806    0.00055     0.39861
      H   28    0.11310      0.00000     0.38638    0.00052     0.38690
 =======================================================================
   * Total *    0.50000     11.99660    33.87958    0.12382    46.00000

                      1                      2                      3
                      A                      A                      A
 Frequencies --     43.9913                65.1460               121.0983
 Red. masses --      5.7780                 4.0811                 4.0770
 Frc consts  --      0.0066                 0.0102                 0.0352
 IR Inten    --      8.9700                 2.4155                 0.8109

                      4                      5                      6
                      A                      A                      A
 Frequencies --    141.5351               227.9871               229.2976
 Red. masses --      2.6048                 1.0594                 1.1008
 Frc consts  --      0.0307                 0.0324                 0.0341
 IR Inten    --      0.1085                 0.1452                 0.0410

                      7                      8                      9
                      A                      A                      A
 Frequencies --    268.4778               275.4982               283.8343
 Red. masses --      1.1925                 1.0926                 2.1050
 Frc consts  --      0.0506                 0.0489                 0.0999
 IR Inten    --      1.0665                 0.3670                 0.0779

                     10                     11                     12
                      A                      A                      A
 Frequencies --    301.5571               314.9414               337.8087
 Red. masses --      2.4273                 2.4255                 2.3703
 Frc consts  --      0.1301                 0.1417                 0.1594
 IR Inten    --      0.0269                 2.6842                 0.4296

                     13                     14                     15
                      A                      A                      A
 Frequencies --    348.9374               383.3785               383.9264
 Red. masses --      2.1279                 3.4192                 2.5822
 Frc consts  --      0.1527                 0.2961                 0.2243
 IR Inten    --      1.5450                 5.8147                 0.4750

                     16                     17                     18
                      A                      A                      A
 Frequencies --    422.0589               434.3445               456.8349
 Red. masses --      6.4870                 2.6993                 4.4105
 Frc consts  --      0.6808                 0.3000                 0.5423
 IR Inten    --      0.0838                 1.7021                25.7857

                     19                     20                     21
                      A                      A                      A
 Frequencies --    514.1814               543.7169               573.7658
 Red. masses --      3.7098                 2.6023                 3.0033
 Frc consts  --      0.5779                 0.4533                 0.5825
 IR Inten    --      4.6611                 2.3325                 0.5271

                     22                     23                     24
                      A                      A                      A
 Frequencies --    606.7825               705.4150               791.9975
 Red. masses --      2.9828                 3.1740                 2.3050
 Frc consts  --      0.6470                 0.9306                 0.8519
 IR Inten    --      0.6614                10.1173                 0.5746

                     25                     26                     27
                      A                      A                      A
 Frequencies --    847.8356               856.0249               924.1746
 Red. masses --      3.0177                 2.6370                 1.9446
 Frc consts  --      1.2780                 1.1385                 0.9786
 IR Inten    --      0.8321                 2.3455                 1.3320

                     28                     29                     30
                      A                      A                      A
 Frequencies --    942.0286               958.0372               958.3667
 Red. masses --      1.8730                 1.4737                 1.4546
 Frc consts  --      0.9793                 0.7969                 0.7872
 IR Inten    --      1.5860                 1.2198                 0.0222

                     31                     32                     33
                      A                      A                      A
 Frequencies --    982.7274               995.0767              1021.2117
 Red. masses --      1.6755                 1.6627                 1.2775
 Frc consts  --      0.9534                 0.9700                 0.7849
 IR Inten    --      1.1979                 0.1688                 0.3038

                     34                     35                     36
                      A                      A                      A
 Frequencies --   1033.8884              1102.0382              1118.0732
 Red. masses --      1.4490                 2.0835                 1.3361
 Frc consts  --      0.9126                 1.4909                 0.9841
 IR Inten    --      0.3004                 2.5786                 0.3386

                     37                     38                     39
                      A                      A                      A
 Frequencies --   1162.8642              1210.4689              1213.7983
 Red. masses --      2.1396                 2.5616                 3.7835
 Frc consts  --      1.7047                 2.2114                 3.2842
 IR Inten    --      9.0610                 0.1465                 4.8658

                     40                     41                     42
                      A                      A                      A
 Frequencies --   1238.8466              1274.6079              1276.6736
 Red. masses --      1.7826                 2.2118                 3.4607
 Frc consts  --      1.6119                 2.1172                 3.3233
 IR Inten    --     14.2706                 6.4918                62.8048

                     43                     44                     45
                      A                      A                      A
 Frequencies --   1278.2895              1308.6132              1356.3780
 Red. masses --      1.8747                 1.9236                 2.1687
 Frc consts  --      1.8049                 1.9409                 2.3508
 IR Inten    --     15.6751                 8.7962                 7.0911

                     46                     47                     48
                      A                      A                      A
 Frequencies --   1360.3608              1398.0326              1400.8582
 Red. masses --      2.4958                 1.2730                 1.3010
 Frc consts  --      2.7212                 1.4660                 1.5043
 IR Inten    --     39.2900                 0.6229                27.3802

                     49                     50                     51
                      A                      A                      A
 Frequencies --   1415.4773              1419.3640              1447.3366
 Red. masses --      1.2585                 1.2274                 1.0778
 Frc consts  --      1.4857                 1.4569                 1.3303
 IR Inten    --      7.8711                14.2867                19.7333

                     52                     53                     54
                      A                      A                      A
 Frequencies --   1453.2802              1476.1149              1479.4842
 Red. masses --      1.1072                 1.0462                 1.0469
 Frc consts  --      1.3778                 1.3430                 1.3501
 IR Inten    --      1.5114                 0.1652                 5.3105

                     55                     56                     57
                      A                      A                      A
 Frequencies --   1489.3375              1490.5725              1496.4338
 Red. masses --      1.0472                 1.0820                 1.7330
 Frc consts  --      1.3686                 1.4164                 2.2865
 IR Inten    --      6.6088                 0.0573                 1.5185

                     58                     59                     60
                      A                      A                      A
 Frequencies --   1501.5041              1504.1540              1511.6824
 Red. masses --      1.0688                 1.2025                 1.0621
 Frc consts  --      1.4197                 1.6029                 1.4299
 IR Inten    --      1.4649                 3.8972                10.3564

                     61                     62                     63
                      A                      A                      A
 Frequencies --   1517.3455              1854.0935              3061.0144
 Red. masses --      1.6561                12.0756                 1.0494
 Frc consts  --      2.2465                24.4581                 5.7935
 IR Inten    --      9.3660               247.6308                 0.0031

                     64                     65                     66
                      A                      A                      A
 Frequencies --   3062.4694              3067.5084              3068.9664
 Red. masses --      1.0495                 1.0495                 1.0471
 Frc consts  --      5.7995                 5.8185                 5.8104
 IR Inten    --      4.0029                24.9016                 4.3594

                     67                     68                     69
                      A                      A                      A
 Frequencies --   3073.3095              3074.1463              3130.1973
 Red. masses --      1.0369                 1.0395                 1.0971
 Frc consts  --      5.7702                 5.7881                 6.3332
 IR Inten    --     23.1212                 0.9390                 1.9486

                     70                     71                     72
                      A                      A                      A
 Frequencies --   3130.2253              3139.9536              3139.9769
 Red. masses --      1.0972                 1.1021                 1.1022
 Frc consts  --      6.3340                 6.4023                 6.4029
 IR Inten    --      7.4458                 1.4191                24.0904

                     73                     74                     75
                      A                      A                      A
 Frequencies --   3146.0938              3146.5609              3151.4524
 Red. masses --      1.1030                 1.1026                 1.1034
 Frc consts  --      6.4321                 6.4320                 6.4566
 IR Inten    --     36.1709                 0.6591                 1.2158

                     76                     77                     78
                      A                      A                      A
 Frequencies --   3151.6985              3174.6395              3174.8664
 Red. masses --      1.1033                 1.1012                 1.1011
 Frc consts  --      6.4568                 6.5391                 6.5394
 IR Inten    --     15.6974                 4.7195                 7.5602

 - Thermochemistry -
 -------------------
 Temperature   298.150 Kelvin.  Pressure   1.00000 Atm.
 Atom     1 has atomic number  8 and mass  15.99491

 Molecular mass:   170.11810 amu.
 Principal axes and moments of inertia in atomic units:
                           1         2         3
     Eigenvalues --  1661.400081746.981522615.27141
           X            0.00090   1.00000   0.00028
           Y            1.00000  -0.00090  -0.00001
           Z            0.00001  -0.00028   1.00000
 This molecule is an asymmetric top.
 Rotational symmetry number  1.
 Warning -- assumption of classical behavior for rotation
           may cause significant error
 Rotational temperatures (Kelvin)      0.05213     0.04958     0.03312
 Rotational constants (GHZ):           1.08628     1.03306     0.69008
 Zero-point vibrational energy     639673.4 (Joules/Mol)
                                  152.88562 (Kcal/Mol)
 Warning -- explicit consideration of  22 degrees of freedom as
           vibrations may cause significant error
 Vibrational temperatures:     63.29    93.73   174.23   203.64   328.02
          (Kelvin)            329.91   386.28   396.38   408.37   433.87
                              453.13   486.03   502.04   551.60   552.38
                              607.25   624.92   657.28   739.79   782.29
                              825.52   873.02  1014.93  1139.51  1219.85
                             1231.63  1329.68  1355.37  1378.40  1378.88
                             1413.93  1431.69  1469.30  1487.53  1585.59
                             1608.66  1673.10  1741.59  1746.39  1782.42
                             1833.88  1836.85  1839.17  1882.80  1951.53
                             1957.26  2011.46  2015.52  2036.56  2042.15
                             2082.39  2090.95  2123.80  2128.65  2142.82
                             2144.60  2153.03  2160.33  2164.14  2174.97
                             2183.12  2667.63  4404.12  4406.21  4413.46
                             4415.56  4421.81  4423.01  4503.66  4503.70
                             4517.69  4517.73  4526.53  4527.20  4534.24
                             4534.59  4567.60  4567.92

 Zero-point correction=                           0.243639 (Hartree/Particle)
 Thermal correction to Energy=                    0.256546
 Thermal correction to Enthalpy=                  0.257491
 Thermal correction to Gibbs Free Energy=         0.204791
 Sum of electronic and zero-point Energies=           -557.453927
 Sum of electronic and thermal Energies=              -557.441020
 Sum of electronic and thermal Enthalpies=            -557.440075
 Sum of electronic and thermal Free Energies=         -557.492775

                     E (Thermal)             CV                S
                      KCal/Mol        Cal/Mol-Kelvin    Cal/Mol-Kelvin
 Total                  160.985             50.019            110.915
 Electronic               0.000              0.000              1.377
 Translational            0.889              2.981             41.302
 Rotational               0.889              2.981             30.408
 Vibrational            159.208             44.058             37.828
 Vibration     1          0.595              1.980              5.071
 Vibration     2          0.597              1.971              4.295
 Vibration     3          0.609              1.932              3.083
 Vibration     4          0.615              1.912              2.783
 Vibration     5          0.651              1.798              1.895
 Vibration     6          0.652              1.796              1.884
 Vibration     7          0.673              1.731              1.606
 Vibration     8          0.677              1.719              1.561
 Vibration     9          0.682              1.704              1.510
 Vibration    10          0.694              1.671              1.408
 Vibration    11          0.702              1.645              1.336
 Vibration    12          0.718              1.600              1.222
 Vibration    13          0.726              1.577              1.171
 Vibration    14          0.753              1.506              1.026
 Vibration    15          0.753              1.504              1.024
 Vibration    16          0.784              1.422              0.885
 Vibration    17          0.795              1.395              0.845
 Vibration    18          0.815              1.346              0.775
 Vibration    19          0.869              1.219              0.624
 Vibration    20          0.899              1.153              0.557
 Vibration    21          0.930              1.088              0.497
 Vibration    22          0.965              1.017              0.438

 Optimization completed.
    -- Stationary point found.
 Normal termination of Gaussian 16 at Fri Jan 10 06:29:06 2025.
