 Gaussian 16, Revision C.01,
 Gaussian 16:  ES64L-G16RevC.01  3-Jul-2019

 ----------------------------------
 #p M062X/DEF2TZVP opt freq pop=NBO
 ----------------------------------

 -----------------------------
 data_set_3-catalyst-Mix_4_opt
 -----------------------------
 Symbolic Z-matrix:
 Charge =  0 Multiplicity = 2

 SCF Done:  E(UM062X) =  -939.416488704     A.U. after   21 cycles
 SCF Done:  E(UM062X) =  -939.428222442     A.U. after   18 cycles
 SCF Done:  E(UM062X) =  -939.428758342     A.U. after   14 cycles
 SCF Done:  E(UM062X) =  -939.427533478     A.U. after   15 cycles
 SCF Done:  E(UM062X) =  -939.428862834     A.U. after   16 cycles
 SCF Done:  E(UM062X) =  -939.428911144     A.U. after   14 cycles
 SCF Done:  E(UM062X) =  -939.428896012     A.U. after   14 cycles
 SCF Done:  E(UM062X) =  -939.428936550     A.U. after   14 cycles
 SCF Done:  E(UM062X) =  -939.428936391     A.U. after   10 cycles
 SCF Done:  E(UM062X) =  -939.428937432     A.U. after    9 cycles
 SCF Done:  E(UM062X) =  -939.428937641     A.U. after    8 cycles
 SCF Done:  E(UM062X) =  -939.428937675     A.U. after    8 cycles
 Optimization completed.
    -- Stationary point found.

 1\1\GINC-BD23\FOpt\UM062X\def2TZVP\C13H22N1O5(2)\MIYAO\10-Jan-2025\0\\
 #p M062X/DEF2TZVP opt freq pop=NBO\\data_set_3-catalyst-Mix_4_opt\\0,2
 \O,0.1780854407,0.0975232095,-1.986461221\N,0.0680498412,-0.3641298364
 ,-0.8157187037\C,-1.2469625247,-0.7532773025,-0.2664031171\C,-1.064416
 2889,-1.9879897376,0.6180842967\C,0.0297212911,-1.8408988311,1.6936091
 259\C,0.9277268483,-0.6273423978,1.4595223917\C,1.3024672749,-0.479159
 5313,-0.0161675338\C,2.1253994302,-1.65536318,-0.5619457871\C,2.058390
 4975,0.8393884167,-0.2300533259\O,3.1686065149,0.9346752028,-0.6679051

 Normal termination of Gaussian 16 at Fri Jan 10 03:22:22 2025.

 --------------------------------------------------------------------
 #P Geom=AllCheck Guess=TCheck SCRF=Check GenChk UM062X/def2TZVP Freq
 --------------------------------------------------------------------

 Structure from the checkpoint file:  "outputs/data_set_3-catalyst-Mix_4_opt.chk"
 -----------------------------
 data_set_3-catalyst-Mix_4_opt
 -----------------------------
 Charge =  0 Multiplicity = 2

                         Standard orientation:
 ---------------------------------------------------------------------
 Center     Atomic      Atomic             Coordinates (Angstroms)
 Number     Number       Type             X           Y           Z
 ---------------------------------------------------------------------
      1          8           0        0.201270    0.104284   -1.982152
      2          7           0        0.067278   -0.361859   -0.815693
      3          6           0       -1.263697   -0.713566   -0.279737
      4          6           0       -1.127007   -1.959515    0.597237
      5          6           0       -0.037692   -1.854172    1.682511
      6          6           0        0.899604   -0.667652    1.464388
      7          6           0        1.290897   -0.520959   -0.007148
      8          6           0        2.081218   -1.718458   -0.554813
      9          6           0        2.089291    0.774795   -0.205449
     10          8           0        3.205499    0.838410   -0.633709
     11          8           0        1.383505    1.840868    0.182828
     12          6           0        2.008680    3.100337   -0.052448
     13          1           0       -0.914787   -2.791266   -0.077630
     14          1           0       -2.091266   -2.156043    1.061309
     15          1           0        0.539509   -2.780318    1.699420
     16          1           0       -0.501408   -1.747667    2.661828
     17          1           0        1.805456   -0.775692    2.061848
     18          1           0        0.419193    0.253230    1.792815
     19          1           0        2.389559   -1.459748   -1.567965
     20          1           0        1.387509   -2.558570   -0.636338
     21          1           0        2.209805    3.221775   -1.115708
     22          1           0        2.945367    3.168625    0.498859
     23          1           0        1.305052    3.851964    0.292547
     24          6           0        3.287986   -2.127050    0.281041
     25          1           0        3.961859   -1.285959    0.437023
     26          1           0        3.845074   -2.910405   -0.232743
     27          1           0        2.990570   -2.523058    1.253454
     28          6           0       -2.217122   -0.941963   -1.460404
     29          6           0       -3.642594   -1.268077   -1.032390
     30          6           0       -1.801348    0.457842    0.554979
     31          8           0       -2.191207    0.364489    1.688150
     32          8           0       -1.809026    1.590819   -0.140187
     33          6           0       -2.237703    2.747267    0.574115
     34          1           0       -1.799098   -1.750867   -2.062945
     35          1           0       -2.200715   -0.048229   -2.079987
     36          1           0       -4.283657   -1.339201   -1.910334
     37          1           0       -4.056494   -0.492373   -0.384248
     38          1           0       -3.706429   -2.216426   -0.499085
     39          1           0       -3.259237    2.618039    0.928931
     40          1           0       -2.176256    3.570751   -0.130431
     41          1           0       -1.583972    2.920510    1.428501
 ---------------------------------------------------------------------

 SCF Done:  E(UM062X) =  -939.428937675     A.U. after    1 cycles

 The electronic state is 2-A.
 Alpha  occ. eigenvalues --  -19.67989 -19.67488 -19.63267 -19.62589 -19.61992
 Alpha  occ. eigenvalues --  -14.84581 -10.67773 -10.67275 -10.60364 -10.60001
 Alpha  occ. eigenvalues --  -10.59664 -10.59191 -10.54749 -10.54706 -10.54343
 Alpha  occ. eigenvalues --  -10.54207 -10.53771 -10.53203 -10.52358  -1.25429
 Alpha  occ. eigenvalues --   -1.24699  -1.23301  -1.15449  -1.14931  -0.99806
 Alpha  occ. eigenvalues --   -0.93969  -0.87893  -0.86483  -0.84619  -0.83887
 Alpha  occ. eigenvalues --   -0.81608  -0.76917  -0.74291  -0.71239  -0.69705
 Alpha  occ. eigenvalues --   -0.68092  -0.64914  -0.64094  -0.61732  -0.59636
 Alpha  occ. eigenvalues --   -0.59354  -0.57908  -0.57283  -0.56779  -0.56043
 Alpha  occ. eigenvalues --   -0.55362  -0.53390  -0.53228  -0.51940  -0.51229
 Alpha  occ. eigenvalues --   -0.50487  -0.49726  -0.48241  -0.47880  -0.47112
 Alpha  occ. eigenvalues --   -0.46619  -0.45588  -0.44522  -0.44481  -0.43843
 Alpha  occ. eigenvalues --   -0.43460  -0.42956  -0.42097  -0.41658  -0.41054
 Alpha  occ. eigenvalues --   -0.40867  -0.39234  -0.38476  -0.38397  -0.37840
 Alpha  occ. eigenvalues --   -0.36692  -0.35523  -0.34104  -0.26197
 Alpha virt. eigenvalues --    0.03544   0.04897   0.05255   0.06275   0.07405
 Alpha virt. eigenvalues --    0.08320   0.09432   0.09804   0.10076   0.11417
 Alpha virt. eigenvalues --    0.11569   0.12086   0.12698   0.13162   0.13316

  Beta  occ. eigenvalues --  -19.67982 -19.67488 -19.62573 -19.62155 -19.61990
  Beta  occ. eigenvalues --  -14.83789 -10.67718 -10.67251 -10.60406 -10.60044
  Beta  occ. eigenvalues --  -10.59663 -10.59190 -10.54745 -10.54690 -10.54344
  Beta  occ. eigenvalues --  -10.54199 -10.53736 -10.53204 -10.52356  -1.25125
  Beta  occ. eigenvalues --   -1.24520  -1.20725  -1.15398  -1.14921  -0.98503
  Beta  occ. eigenvalues --   -0.93803  -0.87482  -0.85750  -0.84519  -0.83469
  Beta  occ. eigenvalues --   -0.81537  -0.76717  -0.73445  -0.70961  -0.69546
  Beta  occ. eigenvalues --   -0.67870  -0.64776  -0.63872  -0.61240  -0.59305
  Beta  occ. eigenvalues --   -0.58267  -0.57661  -0.57175  -0.56528  -0.55629
  Beta  occ. eigenvalues --   -0.54848  -0.53176  -0.52272  -0.51161  -0.50212
  Beta  occ. eigenvalues --   -0.49597  -0.49474  -0.47825  -0.47062  -0.47049
  Beta  occ. eigenvalues --   -0.45957  -0.45485  -0.44414  -0.44051  -0.43456
  Beta  occ. eigenvalues --   -0.42981  -0.42674  -0.41614  -0.41363  -0.40768
  Beta  occ. eigenvalues --   -0.40521  -0.38767  -0.38336  -0.38145  -0.37828
  Beta  occ. eigenvalues --   -0.35756  -0.34734  -0.32578
  Beta virt. eigenvalues --   -0.01308   0.04196   0.05118   0.05291   0.06318
  Beta virt. eigenvalues --    0.07422   0.08353   0.09418   0.09863   0.10149
  Beta virt. eigenvalues --    0.11430   0.11604   0.12106   0.12695   0.13157

 Mulliken charges and spin densities:
               1          2
     1  O   -0.374494   0.548908
     2  N    0.214311   0.436025
     3  C    0.175437  -0.046922
     4  C   -0.411482   0.019944
     5  C   -0.266996  -0.007596
     6  C   -0.411862  -0.011411
     7  C    0.038423   0.002306
     8  C   -0.292475   0.016424
     9  C    0.357042   0.005552
    10  O   -0.319588   0.000169
    11  O   -0.268695  -0.003583
    12  C   -0.265064  -0.000405
    13  H    0.188869  -0.003890
    14  H    0.177731   0.002360
    15  H    0.169542   0.000209
    16  H    0.167199  -0.000046
    17  H    0.192690  -0.000275
    18  H    0.208989  -0.000307
    19  H    0.183125  -0.002190
    20  H    0.155264  -0.000467
    21  H    0.162470   0.000518
    22  H    0.151616   0.000395
    23  H    0.136714   0.000076
    24  C   -0.452643   0.000789
    25  H    0.176002  -0.000129
    26  H    0.147377   0.001228
    27  H    0.133851   0.000133
    28  C   -0.275333   0.002936
    29  C   -0.447719  -0.001373
    30  C    0.193722   0.032834
    31  O   -0.315156   0.005436
    32  O   -0.223995   0.000179
    33  C   -0.279404   0.001525
    34  H    0.162160   0.001115
    35  H    0.190434  -0.000636
    36  H    0.152271   0.000020
    37  H    0.156132   0.000006
    38  H    0.148451   0.000100
    39  H    0.156855   0.000052
    40  H    0.153067  -0.000038
    41  H    0.155162   0.000030
 Sum of Mulliken charges =  -0.00000   1.00000

 Dipole moment (field-independent basis, Debye):
    X=             -1.5714    Y=              0.3378    Z=              1.7399  Tot=              2.3687
 Quadrupole moment (field-independent basis, Debye-Ang):
   XX=           -119.0841   YY=            -97.8012   ZZ=           -123.1277
   XY=             -1.7067   XZ=              8.3440   YZ=              2.2260

  Exact polarizability:     180.714      -2.507     171.577      -0.411      -2.948     149.801
 Approx polarizability:     201.164      -1.286     197.032      -8.415      -5.508     204.363

 Summary of Natural Population Analysis:

                                       Natural Population
                Natural  -----------------------------------------------
    Atom  No    Charge         Core      Valence    Rydberg      Total
 -----------------------------------------------------------------------
      O    1    0.06873      0.99993     2.92607    0.00527     3.93127
      N    2    0.25087      0.99972     2.23030    0.01912     3.24913
      C    3   -0.01323      0.99953     2.00167    0.01203     3.01323
      C    4   -0.20079      0.99969     2.19312    0.00798     3.20079
      C    5   -0.20202      0.99973     2.19553    0.00676     3.20202
      C    6   -0.20623      0.99968     2.19921    0.00733     3.20623
      C    7   -0.00943      0.99955     1.99715    0.01272     3.00943
      C    8   -0.18965      0.99970     2.18120    0.00874     3.18965
      C    9    0.41388      0.99968     1.56715    0.01928     2.58612
      O   10   -0.29404      0.99988     3.27922    0.01495     4.29404
      O   11   -0.25170      0.99986     3.23856    0.01327     4.25170
      C   12   -0.12633      0.99965     2.11981    0.00687     3.12633
      H   13    0.10526      0.00000     0.39407    0.00067     0.39474
      H   14    0.11883      0.00000     0.38056    0.00061     0.38117
      H   15    0.10339      0.00000     0.39593    0.00067     0.39661
      H   16    0.11420      0.00000     0.38526    0.00054     0.38580
      H   17    0.11446      0.00000     0.38498    0.00056     0.38554
      H   18    0.11523      0.00000     0.38413    0.00064     0.38477
      H   19    0.11810      0.00000     0.38125    0.00065     0.38190
      H   20    0.10091      0.00000     0.39841    0.00069     0.39909
      H   21    0.09736      0.00000     0.40188    0.00076     0.40264
      H   22    0.09419      0.00000     0.40504    0.00077     0.40581
      H   23    0.09361      0.00000     0.40576    0.00063     0.40639
      C   24   -0.30433      0.99974     2.29945    0.00514     3.30433
      H   25    0.11201      0.00000     0.38745    0.00053     0.38799
      H   26    0.10882      0.00000     0.39082    0.00036     0.39118
      H   27    0.09665      0.00000     0.40273    0.00062     0.40335
      C   28   -0.19253      0.99970     2.18410    0.00873     3.19253
      C   29   -0.30385      0.99974     2.29906    0.00504     3.30385
      C   30    0.41319      0.99966     1.56674    0.02041     2.58681
      O   31   -0.30231      0.99988     3.28717    0.01526     4.30231
      O   32   -0.24382      0.99986     3.23018    0.01377     4.24382
      C   33   -0.12708      0.99964     2.12057    0.00687     3.12708
      H   34    0.10775      0.00000     0.39154    0.00072     0.39225
      H   35    0.12057      0.00000     0.37877    0.00066     0.37943
      H   36    0.10935      0.00000     0.39031    0.00035     0.39065
      H   37    0.10284      0.00000     0.39662    0.00053     0.39716
      H   38    0.10161      0.00000     0.39783    0.00056     0.39839
      H   39    0.09479      0.00000     0.40443    0.00078     0.40521
      H   40    0.09680      0.00000     0.40262    0.00058     0.40320
      H   41    0.09390      0.00000     0.40528    0.00081     0.40610
 =======================================================================
   * Total *    0.50000     18.99483    53.78194    0.22323    73.00000

                      1                      2                      3
                      A                      A                      A
 Frequencies --     43.0448                53.3938                58.3110
 Red. masses --      5.0314                 4.3574                 4.2548
 Frc consts  --      0.0055                 0.0073                 0.0085
 IR Inten    --      1.2610                 1.2174                 1.3163

                      4                      5                      6
                      A                      A                      A
 Frequencies --     68.6577                81.2126               101.5661
 Red. masses --      2.9217                 3.9301                 3.9588
 Frc consts  --      0.0081                 0.0153                 0.0241
 IR Inten    --      0.3091                 2.6326                 2.7483

                      7                      8                      9
                      A                      A                      A
 Frequencies --    109.7125               132.0569               143.2287
 Red. masses --      3.4272                 2.4308                 2.1775
 Frc consts  --      0.0243                 0.0250                 0.0263
 IR Inten    --      0.8016                 0.3471                 0.0659

                     10                     11                     12
                      A                      A                      A
 Frequencies --    154.4747               164.3439               171.8447
 Red. masses --      2.7902                 1.4153                 1.1895
 Frc consts  --      0.0392                 0.0225                 0.0207
 IR Inten    --      1.8350                 0.4114                 0.0164

                     13                     14                     15
                      A                      A                      A
 Frequencies --    180.2122               203.3229               204.9212
 Red. masses --      2.2213                 1.2958                 3.3381
 Frc consts  --      0.0425                 0.0316                 0.0826
 IR Inten    --      1.3887                 0.2339                 0.4560

                     16                     17                     18
                      A                      A                      A
 Frequencies --    217.5673               246.3853               256.6884
 Red. masses --      2.8926                 2.5359                 2.4691
 Frc consts  --      0.0807                 0.0907                 0.0959
 IR Inten    --      3.6661                 2.0887                 0.9984

                     19                     20                     21
                      A                      A                      A
 Frequencies --    271.7550               304.4615               322.3192
 Red. masses --      2.0512                 2.4688                 3.0520
 Frc consts  --      0.0893                 0.1348                 0.1868
 IR Inten    --      1.3911                 2.9772                 1.4866

                     22                     23                     24
                      A                      A                      A
 Frequencies --    328.3352               345.4111               357.7488
 Red. masses --      2.7157                 3.1367                 2.9455
 Frc consts  --      0.1725                 0.2205                 0.2221
 IR Inten    --      2.9637                 4.3757                 8.7425

                     25                     26                     27
                      A                      A                      A
 Frequencies --    366.5196               394.4493               420.4585
 Red. masses --      4.0327                 4.8998                 5.8460
 Frc consts  --      0.3192                 0.4492                 0.6089
 IR Inten    --      8.0970                17.2382                 2.1032

                     28                     29                     30
                      A                      A                      A
 Frequencies --    439.4979               464.1956               521.1074
 Red. masses --      5.3559                 5.0012                 4.2121
 Frc consts  --      0.6095                 0.6349                 0.6739
 IR Inten    --      1.9583                 5.0293                 1.4268

                     31                     32                     33
                      A                      A                      A
 Frequencies --    534.7768               594.9611               649.5838
 Red. masses --      3.7518                 3.5635                 3.8675
 Frc consts  --      0.6322                 0.7432                 0.9615
 IR Inten    --      6.4367                 1.8319                17.1879

                     34                     35                     36
                      A                      A                      A
 Frequencies --    691.9539               747.4860               761.8453
 Red. masses --      2.0674                 4.2490                 2.0593
 Frc consts  --      0.5832                 1.3988                 0.7042
 IR Inten    --      5.6208                 5.1749                 0.9632

                     37                     38                     39
                      A                      A                      A
 Frequencies --    773.3514               795.8318               816.2102
 Red. masses --      2.0567                 1.5906                 2.0077
 Frc consts  --      0.7247                 0.5935                 0.7881
 IR Inten    --     12.9185                 5.9654                16.4695

                     40                     41                     42
                      A                      A                      A
 Frequencies --    828.8548               872.9622               876.5866
 Red. masses --      2.2772                 3.7055                 2.6757
 Frc consts  --      0.9217                 1.6637                 1.2114
 IR Inten    --     13.7791                 1.1132                 0.3010

                     43                     44                     45
                      A                      A                      A
 Frequencies --    925.9691               933.4332               964.3127
 Red. masses --      2.4609                 2.4265                 2.1437
 Frc consts  --      1.2432                 1.2456                 1.1745
 IR Inten    --      3.9366                12.9935                 6.2263

                     46                     47                     48
                      A                      A                      A
 Frequencies --    993.2402              1013.8600              1042.0305
 Red. masses --      1.7268                 1.8545                 1.8086
 Frc consts  --      1.0037                 1.1231                 1.1571
 IR Inten    --      3.3373                 1.9236                 1.6191

                     49                     50                     51
                      A                      A                      A
 Frequencies --   1061.4167              1069.1100              1077.1772
 Red. masses --      2.5358                 3.4744                 3.8879
 Frc consts  --      1.6832                 2.3398                 2.6579
 IR Inten    --      2.5915                12.0920                22.6985

                     52                     53                     54
                      A                      A                      A
 Frequencies --   1098.4053              1114.0649              1126.0741
 Red. masses --      2.7213                 2.0455                 2.1574
 Frc consts  --      1.9344                 1.4958                 1.6118
 IR Inten    --      7.1567                 1.5281                 2.6711

                     55                     56                     57
                      A                      A                      A
 Frequencies --   1157.8957              1175.5006              1183.0763
 Red. masses --      2.5498                 2.6710                 2.2204
 Frc consts  --      2.0142                 2.1746                 1.8311
 IR Inten    --      4.8027                 9.2543                73.0530

                     58                     59                     60
                      A                      A                      A
 Frequencies --   1187.5625              1188.4296              1211.9867
 Red. masses --      1.2934                 1.2987                 2.2630
 Frc consts  --      1.0748                 1.0807                 1.9585
 IR Inten    --      1.5531                 2.0371                29.1920

                     61                     62                     63
                      A                      A                      A
 Frequencies --   1223.0885              1226.6721              1228.0769
 Red. masses --      1.6888                 2.8305                 1.6078
 Frc consts  --      1.4885                 2.5094                 1.4287
 IR Inten    --     19.7448                 0.5476                 9.4053

                     64                     65                     66
                      A                      A                      A
 Frequencies --   1256.3699              1288.2329              1297.6564
 Red. masses --      1.7083                 1.9018                 1.5299
 Frc consts  --      1.5887                 1.8595                 1.5179
 IR Inten    --     43.5844                64.2426                26.5543

                     67                     68                     69
                      A                      A                      A
 Frequencies --   1304.9841              1306.7674              1338.9490
 Red. masses --      1.2781                 2.2952                 1.7301
 Frc consts  --      1.2824                 2.3092                 1.8275
 IR Inten    --     47.2632               208.6813               102.6607

                     70                     71                     72
                      A                      A                      A
 Frequencies --   1347.2787              1367.0740              1372.7904
 Red. masses --      1.7806                 1.6698                 1.6614
 Frc consts  --      1.9043                 1.8386                 1.8447
 IR Inten    --     51.3071                23.3496                47.8663

                     73                     74                     75
                      A                      A                      A
 Frequencies --   1375.2858              1383.5243              1399.7931
 Red. masses --      1.4882                 1.4954                 1.5993
 Frc consts  --      1.6584                 1.6865                 1.8463
 IR Inten    --      8.1958                 2.0367                 1.4535

                     76                     77                     78
                      A                      A                      A
 Frequencies --   1413.1433              1423.9884              1478.1400
 Red. masses --      1.2822                 1.2626                 1.0723
 Frc consts  --      1.5086                 1.5084                 1.3804
 IR Inten    --      5.9394                 5.3652                 3.2903

                     79                     80                     81
                      A                      A                      A
 Frequencies --   1481.2350              1481.7358              1484.8411
 Red. masses --      1.2203                 1.1205                 1.2068
 Frc consts  --      1.5775                 1.4494                 1.5676
 IR Inten    --      9.9221                 5.2788                 9.6113

                     82                     83                     84
                      A                      A                      A
 Frequencies --   1492.7862              1493.3111              1496.1468
 Red. masses --      1.0436                 1.0882                 1.0452
 Frc consts  --      1.3702                 1.4297                 1.3785
 IR Inten    --     12.9704                13.0599                 3.1871

                     85                     86                     87
                      A                      A                      A
 Frequencies --   1500.1378              1500.7705              1502.4744
 Red. masses --      1.0840                 1.0653                 1.1694
 Frc consts  --      1.4372                 1.4136                 1.5553
 IR Inten    --      9.0130                11.5352                13.5199

                     88                     89                     90
                      A                      A                      A
 Frequencies --   1504.0361              1506.5876              1507.9617
 Red. masses --      1.4967                 1.0740                 1.7206
 Frc consts  --      1.9948                 1.4363                 2.3052
 IR Inten    --     13.2089                 6.0180                21.5625

                     91                     92                     93
                      A                      A                      A
 Frequencies --   1509.5577              1512.8569              1525.6318
 Red. masses --      1.0594                 1.0941                 1.1030
 Frc consts  --      1.4223                 1.4754                 1.5126
 IR Inten    --      6.1710                 9.6625                 9.1460

                     94                     95                     96
                      A                      A                      A
 Frequencies --   1830.2753              1856.9011              3066.5315
 Red. masses --     11.6932                11.9706                 1.0390
 Frc consts  --     23.0790                24.3189                 5.7567
 IR Inten    --    217.9204               260.5836                14.1492

                     97                     98                     99
                      A                      A                      A
 Frequencies --   3071.3379              3077.2640              3079.6118
 Red. masses --      1.0379                 1.0667                 1.0650
 Frc consts  --      5.7683                 5.9515                 5.9510
 IR Inten    --     23.7526                 1.9118                20.7709

                    100                    101                    102
                      A                      A                      A
 Frequencies --   3081.1566              3083.6397              3087.0875
 Red. masses --      1.0310                 1.0302                 1.0666
 Frc consts  --      5.7668                 5.7715                 5.9889
 IR Inten    --     22.2397                31.0474                10.6200

                    103                    104                    105
                      A                      A                      A
 Frequencies --   3089.6774              3102.5593              3125.2603
 Red. masses --      1.0659                 1.0632                 1.0991
 Frc consts  --      5.9948                 6.0301                 6.3250
 IR Inten    --     24.0613                 9.4246                 3.5921

                    106                    107                    108
                      A                      A                      A
 Frequencies --   3129.2588              3132.5095              3140.8590
 Red. masses --      1.0984                 1.0983                 1.1000
 Frc consts  --      6.3371                 6.3495                 6.3936
 IR Inten    --      4.4411                19.1292                23.0190

                    109                    110                    111
                      A                      A                      A
 Frequencies --   3144.2941              3147.7578              3154.9118
 Red. masses --      1.1015                 1.1008                 1.1004
 Frc consts  --      6.4161                 6.4265                 6.4532
 IR Inten    --      9.6791                 7.1430                 6.5266

                    112                    113                    114
                      A                      A                      A
 Frequencies --   3155.3685              3160.1734              3160.3068
 Red. masses --      1.1047                 1.1021                 1.1066
 Frc consts  --      6.4806                 6.4849                 6.5118
 IR Inten    --     24.1141                 9.3191                10.3885

                    115                    116                    117
                      A                      A                      A
 Frequencies --   3163.8922              3190.2674              3195.1433
 Red. masses --      1.0980                 1.1067                 1.1061
 Frc consts  --      6.4759                 6.6362                 6.6533
 IR Inten    --      9.3833                10.4807                 7.8343

 - Thermochemistry -
 -------------------
 Temperature   298.150 Kelvin.  Pressure   1.00000 Atm.
 Atom     1 has atomic number  8 and mass  15.99491

 Molecular mass:   272.14980 amu.
 Principal axes and moments of inertia in atomic units:
                           1         2         3
     Eigenvalues --  3399.952825062.649496452.03749
           X            0.99975  -0.01263   0.01863
           Y            0.01259   0.99992   0.00228
           Z           -0.01866  -0.00204   0.99982
 This molecule is an asymmetric top.
 Rotational symmetry number  1.
 Warning -- assumption of classical behavior for rotation
           may cause significant error
 Rotational temperatures (Kelvin)      0.02548     0.01711     0.01342
 Rotational constants (GHZ):           0.53081     0.35648     0.27972
 Zero-point vibrational energy     924432.7 (Joules/Mol)
                                  220.94473 (Kcal/Mol)
 Warning -- explicit consideration of  32 degrees of freedom as
           vibrations may cause significant error
 Vibrational temperatures:     61.93    76.82    83.90    98.78   116.85
          (Kelvin)            146.13   157.85   190.00   206.07   222.25
                              236.45   247.25   259.29   292.54   294.84
                              313.03   354.49   369.32   390.99   438.05
                              463.75   472.40   496.97   514.72   527.34
                              567.52   604.95   632.34   667.87   749.76
                              769.42   856.02   934.61   995.57  1075.47
                             1096.13  1112.68  1145.02  1174.34  1192.54
                             1256.00  1261.21  1332.26  1343.00  1387.43
                             1429.05  1458.72  1499.25  1527.14  1538.21
                             1549.82  1580.36  1602.89  1620.17  1665.95
                             1691.28  1702.18  1708.64  1709.89  1743.78
                             1759.75  1764.91  1766.93  1807.64  1853.48
                             1867.04  1877.58  1880.15  1926.45  1938.43
                             1966.91  1975.14  1978.73  1990.58  2013.99
                             2033.20  2048.80  2126.71  2131.17  2131.89
                             2136.36  2147.79  2148.54  2152.62  2158.36
                             2159.27  2161.73  2163.97  2167.64  2169.62
                             2171.92  2176.66  2195.04  2633.36  2671.67
                             4412.05  4418.97  4427.50  4430.87  4433.10
                             4436.67  4441.63  4445.36  4463.89  4496.55
                             4502.31  4506.98  4519.00  4523.94  4528.92
                             4539.21  4539.87  4546.78  4546.98  4552.14
                             4590.08  4597.10

 Zero-point correction=                           0.352098 (Hartree/Particle)
 Thermal correction to Energy=                    0.372877
 Thermal correction to Enthalpy=                  0.373822
 Thermal correction to Gibbs Free Energy=         0.302727
 Sum of electronic and zero-point Energies=           -939.076840
 Sum of electronic and thermal Energies=              -939.056060
 Sum of electronic and thermal Enthalpies=            -939.055116
 Sum of electronic and thermal Free Energies=         -939.126211

                     E (Thermal)             CV                S
                      KCal/Mol        Cal/Mol-Kelvin    Cal/Mol-Kelvin
 Total                  233.984             76.370            149.631
 Electronic               0.000              0.000              1.377
 Translational            0.889              2.981             42.702
 Rotational               0.889              2.981             33.073
 Vibrational            232.207             70.409             72.478
 Vibration     1          0.595              1.980              5.114
 Vibration     2          0.596              1.976              4.688
 Vibration     3          0.596              1.974              4.514
 Vibration     4          0.598              1.969              4.191
 Vibration     5          0.600              1.962              3.861
 Vibration     6          0.604              1.948              3.424
 Vibration     7          0.606              1.941              3.274
 Vibration     8          0.612              1.921              2.916
 Vibration     9          0.616              1.910              2.760
 Vibration    10          0.620              1.898              2.616
 Vibration    11          0.623              1.886              2.499
 Vibration    12          0.626              1.877              2.415
 Vibration    13          0.629              1.867              2.326
 Vibration    14          0.639              1.835              2.103
 Vibration    15          0.640              1.833              2.088
 Vibration    16          0.646              1.814              1.979
 Vibration    17          0.661              1.769              1.756
 Vibration    18          0.666              1.751              1.684
 Vibration    19          0.675              1.725              1.585
 Vibration    20          0.695              1.665              1.392
 Vibration    21          0.707              1.631              1.298
 Vibration    22          0.712              1.619              1.268
 Vibration    23          0.724              1.585              1.187
 Vibration    24          0.733              1.559              1.132
 Vibration    25          0.739              1.541              1.094
 Vibration    26          0.761              1.482              0.983
 Vibration    27          0.783              1.426              0.890
 Vibration    28          0.800              1.384              0.828
 Vibration    29          0.822              1.329              0.754
 Vibration    30          0.876              1.203              0.607
 Vibration    31          0.890              1.173              0.577
 Vibration    32          0.953              1.043              0.458

                           ! Non-Optimized Parameters !

 1\1\GINC-BD23\Freq\UM062X\def2TZVP\C13H22N1O5(2)\MIYAO\10-Jan-2025\0\\
 #P Geom=AllCheck Guess=TCheck SCRF=Check GenChk UM062X/def2TZVP Freq\\
 data_set_3-catalyst-Mix_4_opt\\0,2\O,0.1780854407,0.0975232095,-1.9864
 61221\N,0.0680498412,-0.3641298364,-0.8157187037\C,-1.2469625247,-0.75
 32773025,-0.2664031171\C,-1.0644162889,-1.9879897376,0.6180842967\C,0.
 0297212911,-1.8408988311,1.6936091259\C,0.9277268483,-0.6273423978,1.4
 595223917\C,1.3024672749,-0.4791595313,-0.0161675338\C,2.1253994302,-1
 .65536318,-0.5619457871\C,2.0583904975,0.8393884167,-0.2300533259\O,3.

 Normal termination of Gaussian 16 at Fri Jan 10 07:31:57 2025.
