 Gaussian 16, Revision C.01,
 Gaussian 16:  ES64L-G16RevC.01  3-Jul-2019

 ----------------------------------
 #p M062X/DEF2TZVP opt freq pop=NBO
 ----------------------------------

 ------------------------------
 data_set_3-catalyst-Mix_11_opt
 ------------------------------
 Symbolic Z-matrix:
 Charge =  0 Multiplicity = 2

 SCF Done:  E(UM062X) =  -636.277664700     A.U. after   18 cycles
 SCF Done:  E(UM062X) =  -636.284240969     A.U. after   14 cycles
 SCF Done:  E(UM062X) =  -636.284058951     A.U. after   14 cycles
 SCF Done:  E(UM062X) =  -636.284593541     A.U. after   15 cycles
 SCF Done:  E(UM062X) =  -636.284668138     A.U. after   13 cycles
 SCF Done:  E(UM062X) =  -636.284684214     A.U. after   12 cycles
 SCF Done:  E(UM062X) =  -636.284695483     A.U. after   11 cycles
 SCF Done:  E(UM062X) =  -636.284699126     A.U. after    9 cycles
 SCF Done:  E(UM062X) =  -636.284698540     A.U. after    9 cycles
 SCF Done:  E(UM062X) =  -636.284699720     A.U. after    9 cycles
 SCF Done:  E(UM062X) =  -636.284700669     A.U. after    8 cycles
 SCF Done:  E(UM062X) =  -636.284700995     A.U. after    8 cycles
 SCF Done:  E(UM062X) =  -636.284701191     A.U. after    8 cycles
 SCF Done:  E(UM062X) =  -636.284701343     A.U. after    8 cycles
 Optimization completed.
    -- Stationary point found.

 1\1\GINC-BD22\FOpt\UM062X\def2TZVP\C11H20N1O2(2)\MIYAO\09-Jan-2025\0\\
 #p M062X/DEF2TZVP opt freq pop=NBO\\data_set_3-catalyst-Mix_11_opt\\0,
 2\O,2.3099773384,1.085866219,-0.2955248804\N,1.1697445213,0.526239451,
 -0.2759856346\C,0.0365701814,1.4032187911,0.1557795933\C,-1.2584454609
 ,1.1253648561,-0.6338853521\C,-0.0659887946,-1.7454807593,-0.290974356
 3\C,1.2583983153,-0.9703730443,-0.1926346729\C,2.094300883,-1.39147883
 41,-1.4083897027\C,-0.0848208429,1.3558116778,1.6829344161\C,0.4246740
 573,2.8384485448,-0.2271826566\C,2.024768586,-1.334486309,1.0834146866

 Normal termination of Gaussian 16 at Thu Jan  9 09:45:37 2025.

 --------------------------------------------------------------------
 #P Geom=AllCheck Guess=TCheck SCRF=Check GenChk UM062X/def2TZVP Freq
 --------------------------------------------------------------------

 Structure from the checkpoint file:  "outputs/data_set_3-catalyst-Mix_11_opt.chk"
 ------------------------------
 data_set_3-catalyst-Mix_11_opt
 ------------------------------
 Charge =  0 Multiplicity = 2

                         Standard orientation:
 ---------------------------------------------------------------------
 Center     Atomic      Atomic             Coordinates (Angstroms)
 Number     Number       Type             X           Y           Z
 ---------------------------------------------------------------------
      1          8           0        2.318623    1.065514   -0.300064
      2          7           0        1.173307    0.516406   -0.279398
      3          6           0        0.048736    1.403670    0.153844
      4          6           0       -1.249658    1.137957   -0.634452
      5          6           0       -0.083308   -1.743836   -0.293580
      6          6           0        1.248268   -0.980981   -0.196518
      7          6           0        2.078910   -1.409451   -1.413306
      8          6           0       -0.071395    1.356987    1.681121
      9          6           0        0.449614    2.835365   -0.229192
     10          6           0        2.012667   -1.352467    1.078589
     11          1           0       -1.015871    1.136654   -1.700892
     12          1           0       -1.878279    2.022294   -0.478056
     13          1           0        0.238280   -2.772783   -0.465187
     14          1           0       -0.594616   -1.461997   -1.217635
     15          1           0        3.020570   -0.868048   -1.435902
     16          1           0        1.533125   -1.205861   -2.336212
     17          1           0        2.283356   -2.479003   -1.358707
     18          1           0       -0.896572    1.989799    2.014157
     19          1           0        0.854298    1.743027    2.109523
     20          1           0       -0.225120    0.355701    2.070515
     21          1           0       -0.353820    3.510199    0.067245
     22          1           0        0.601966    2.918729   -1.305155
     23          1           0        1.366993    3.132513    0.267955
     24          1           0        1.520666   -0.988947    1.979539
     25          1           0        3.010051   -0.918457    1.039685
     26          1           0        2.100772   -2.438019    1.150177
     27          6           0       -1.069229   -1.798674    0.887039
     28          1           0       -0.528023   -1.746361    1.831696
     29          1           0       -1.519768   -2.789965    0.866185
     30          6           0       -2.238335   -0.780685    0.870521
     31          6           0       -2.236208    0.002151   -0.414081
     32          8           0       -3.030106   -0.237333   -1.289463
     33          1           0       -2.188689   -0.096239    1.715492
     34          1           0       -3.190978   -1.303741    0.917676
 ---------------------------------------------------------------------

 SCF Done:  E(UM062X) =  -636.284701343     A.U. after    1 cycles

 The electronic state is 2-A.
 Alpha  occ. eigenvalues --  -19.62384 -19.61957 -14.83907 -10.63339 -10.60308
 Alpha  occ. eigenvalues --  -10.59429 -10.55574 -10.55375 -10.55058 -10.54802
 Alpha  occ. eigenvalues --  -10.54253 -10.53108 -10.52885 -10.52504  -1.23012
 Alpha  occ. eigenvalues --   -1.17630  -0.97414  -0.94084  -0.90302  -0.83175
 Alpha  occ. eigenvalues --   -0.82631  -0.80920  -0.78867  -0.78686  -0.71803
 Alpha  occ. eigenvalues --   -0.68967  -0.63756  -0.59782  -0.59290  -0.57887
 Alpha  occ. eigenvalues --   -0.56107  -0.55895  -0.53633  -0.52955  -0.51816
 Alpha  occ. eigenvalues --   -0.50940  -0.49717  -0.48435  -0.48142  -0.47379
 Alpha  occ. eigenvalues --   -0.46952  -0.45490  -0.44945  -0.44003  -0.43508
 Alpha  occ. eigenvalues --   -0.43226  -0.42530  -0.41405  -0.41001  -0.40671
 Alpha  occ. eigenvalues --   -0.39527  -0.38708  -0.33584  -0.32258  -0.26452
 Alpha virt. eigenvalues --    0.01771   0.05129   0.06797   0.07269   0.08441
 Alpha virt. eigenvalues --    0.09495   0.10111   0.11298   0.11780   0.12422
 Alpha virt. eigenvalues --    0.12759   0.13373   0.13871   0.14553   0.15180

  Beta  occ. eigenvalues --  -19.61957 -19.61306 -14.83112 -10.63339 -10.60335
  Beta  occ. eigenvalues --  -10.59457 -10.55575 -10.55361 -10.55059 -10.54802
  Beta  occ. eigenvalues --  -10.54216 -10.53080 -10.52883 -10.52488  -1.20087
  Beta  occ. eigenvalues --   -1.17627  -0.96332  -0.93939  -0.89907  -0.83031
  Beta  occ. eigenvalues --   -0.81006  -0.80598  -0.78739  -0.78536  -0.71757
  Beta  occ. eigenvalues --   -0.68454  -0.63457  -0.59123  -0.58726  -0.57198
  Beta  occ. eigenvalues --   -0.55622  -0.54243  -0.53038  -0.52134  -0.51469
  Beta  occ. eigenvalues --   -0.50390  -0.49432  -0.48283  -0.47848  -0.46767
  Beta  occ. eigenvalues --   -0.46297  -0.45356  -0.43784  -0.43698  -0.43322
  Beta  occ. eigenvalues --   -0.42679  -0.42185  -0.41175  -0.40857  -0.39731
  Beta  occ. eigenvalues --   -0.38619  -0.37283  -0.32268  -0.31892
  Beta virt. eigenvalues --   -0.01060   0.01811   0.05123   0.06825   0.07321
  Beta virt. eigenvalues --    0.08509   0.09549   0.10110   0.11249   0.11789
  Beta virt. eigenvalues --    0.12414   0.12755   0.13389   0.13900   0.14578

 Mulliken charges and spin densities:
               1          2
     1  O   -0.390624   0.534419
     2  N    0.223419   0.442389
     3  C    0.066707  -0.021060
     4  C   -0.432090   0.026819
     5  C   -0.349531  -0.001671
     6  C    0.009758   0.007885
     7  C   -0.431793  -0.003218
     8  C   -0.505536   0.023349
     9  C   -0.419429  -0.011288
    10  C   -0.452511   0.021358
    11  H    0.200470  -0.004719
    12  H    0.182409   0.000064
    13  H    0.173624  -0.001629
    14  H    0.201651  -0.000709
    15  H    0.184668  -0.001290
    16  H    0.148724   0.001067
    17  H    0.140581  -0.001124
    18  H    0.174742   0.003241
    19  H    0.190113  -0.001792
    20  H    0.140715  -0.000206
    21  H    0.139085  -0.001194
    22  H    0.164102   0.001532
    23  H    0.177257   0.000224
    24  H    0.138640   0.001402
    25  H    0.185609  -0.001905
    26  H    0.153874  -0.000811
    27  C   -0.340081  -0.002270
    28  H    0.176942  -0.000245
    29  H    0.162235  -0.000128
    30  C   -0.325462   0.001120
    31  C    0.249856  -0.009950
    32  O   -0.278602   0.000288
    33  H    0.181351   0.000103
    34  H    0.159130  -0.000051
 Sum of Mulliken charges =  -0.00000   1.00000

 Dipole moment (field-independent basis, Debye):
    X=             -0.2385    Y=             -0.8738    Z=              2.6290  Tot=              2.7807
 Quadrupole moment (field-independent basis, Debye-Ang):
   XX=           -102.8042   YY=            -82.5410   ZZ=            -88.8564
   XY=             -6.0309   XZ=             -6.2568   YZ=             -0.0282

  Exact polarizability:     144.171       1.648     139.609       0.087      -0.767     123.622
 Approx polarizability:     171.531       4.450     164.075       3.696       0.499     160.603

 Summary of Natural Population Analysis:

                                       Natural Population
                Natural  -----------------------------------------------
    Atom  No    Charge         Core      Valence    Rydberg      Total
 -----------------------------------------------------------------------
      O    1    0.04900      0.99993     2.94585    0.00521     3.95100
      N    2    0.24384      0.99971     2.23575    0.02069     3.25616
      C    3    0.04215      0.99964     1.94980    0.00840     2.95785
      C    4   -0.26371      0.99961     2.25426    0.00985     3.26371
      C    5   -0.21102      0.99966     2.20342    0.00793     3.21102
      C    6    0.04305      0.99963     1.94810    0.00922     2.95695
      C    7   -0.29300      0.99971     2.28687    0.00642     3.29300
      C    8   -0.29921      0.99969     2.29283    0.00669     3.29921
      C    9   -0.29347      0.99971     2.28676    0.00700     3.29347
      C   10   -0.29729      0.99970     2.29079    0.00680     3.29729
      H   11    0.12185      0.00000     0.37741    0.00074     0.37815
      H   12    0.12339      0.00000     0.37603    0.00058     0.37661
      H   13    0.11174      0.00000     0.38769    0.00057     0.38826
      H   14    0.10892      0.00000     0.39023    0.00085     0.39108
      H   15    0.11786      0.00000     0.38156    0.00058     0.38214
      H   16    0.10432      0.00000     0.39521    0.00047     0.39568
      H   17    0.10081      0.00000     0.39871    0.00049     0.39919
      H   18    0.10780      0.00000     0.39173    0.00047     0.39220
      H   19    0.11227      0.00000     0.38720    0.00053     0.38773
      H   20    0.10271      0.00000     0.39670    0.00059     0.39729
      H   21    0.09949      0.00000     0.40007    0.00045     0.40051
      H   22    0.10922      0.00000     0.39028    0.00050     0.39078
      H   23    0.11669      0.00000     0.38276    0.00055     0.38331
      H   24    0.10155      0.00000     0.39794    0.00051     0.39845
      H   25    0.11634      0.00000     0.38315    0.00051     0.38366
      H   26    0.10406      0.00000     0.39547    0.00047     0.39594
      C   27   -0.20009      0.99971     2.19408    0.00630     3.20009
      H   28    0.10470      0.00000     0.39462    0.00068     0.39530
      H   29    0.11161      0.00000     0.38790    0.00049     0.38839
      C   30   -0.25775      0.99966     2.25085    0.00723     3.25775
      C   31    0.30634      0.99969     1.67885    0.01512     2.69366
      O   32   -0.27217      0.99989     3.25800    0.01429     4.27217
      H   33    0.11065      0.00000     0.38875    0.00060     0.38935
      H   34    0.11737      0.00000     0.38193    0.00069     0.38263
 =======================================================================
   * Total *    0.50000     13.99595    39.86156    0.14249    54.00000

                      1                      2                      3
                      A                      A                      A
 Frequencies --     41.8735                77.8174               112.4454
 Red. masses --      4.8559                 4.4966                 2.9547
 Frc consts  --      0.0050                 0.0160                 0.0220
 IR Inten    --      5.8478                 2.7125                 1.6376

                      4                      5                      6
                      A                      A                      A
 Frequencies --    159.6279               189.9864               212.5126
 Red. masses --      1.9002                 1.7679                 2.1038
 Frc consts  --      0.0285                 0.0376                 0.0560
 IR Inten    --      0.3383                 0.2772                 0.3969

                      7                      8                      9
                      A                      A                      A
 Frequencies --    224.8824               251.8956               261.0459
 Red. masses --      2.0452                 2.4892                 1.8595
 Frc consts  --      0.0609                 0.0931                 0.0747
 IR Inten    --      0.4219                 1.7844                 1.3480

                     10                     11                     12
                      A                      A                      A
 Frequencies --    268.7148               283.4111               289.3822
 Red. masses --      1.3200                 2.0013                 1.4117
 Frc consts  --      0.0562                 0.0947                 0.0697
 IR Inten    --      0.0036                 2.0609                 0.5359

                     13                     14                     15
                      A                      A                      A
 Frequencies --    316.6611               340.4519               352.7719
 Red. masses --      2.6048                 1.9930                 2.0809
 Frc consts  --      0.1539                 0.1361                 0.1526
 IR Inten    --      0.4266                 1.5272                 0.9600

                     16                     17                     18
                      A                      A                      A
 Frequencies --    363.8553               388.7128               400.9802
 Red. masses --      2.6017                 2.2759                 1.9389
 Frc consts  --      0.2029                 0.2026                 0.1837
 IR Inten    --      0.8377                 0.6862                 1.0703

                     19                     20                     21
                      A                      A                      A
 Frequencies --    450.8934               468.7146               477.2858
 Red. masses --      2.5793                 2.3586                 3.6096
 Frc consts  --      0.3090                 0.3053                 0.4845
 IR Inten    --      5.1140                 0.1265                10.1285

                     22                     23                     24
                      A                      A                      A
 Frequencies --    535.6592               545.8458               556.4038
 Red. masses --      3.3155                 2.6251                 2.9468
 Frc consts  --      0.5605                 0.4608                 0.5375
 IR Inten    --      4.9465                 2.8213                10.7488

                     25                     26                     27
                      A                      A                      A
 Frequencies --    587.1412               606.8640               705.3801
 Red. masses --      4.1932                 3.5098                 2.9848
 Frc consts  --      0.8517                 0.7616                 0.8750
 IR Inten    --     10.1474                 1.5536                 1.6873

                     28                     29                     30
                      A                      A                      A
 Frequencies --    788.8521               792.8217               834.5926
 Red. masses --      1.8930                 2.6077                 2.0687
 Frc consts  --      0.6941                 0.9657                 0.8490
 IR Inten    --      7.4166                 0.3152                 2.4548

                     31                     32                     33
                      A                      A                      A
 Frequencies --    846.0076               874.9893               912.7347
 Red. masses --      2.0378                 3.1628                 2.0206
 Frc consts  --      0.8593                 1.4267                 0.9918
 IR Inten    --      0.1732                 2.3995                 6.6875

                     34                     35                     36
                      A                      A                      A
 Frequencies --    949.0888               954.0270               973.1008
 Red. masses --      1.5344                 1.4922                 2.0770
 Frc consts  --      0.8143                 0.8002                 1.1588
 IR Inten    --      2.1284                 1.1512                 7.1417

                     37                     38                     39
                      A                      A                      A
 Frequencies --    983.3255               997.8323              1018.9454
 Red. masses --      2.0617                 1.6663                 1.5061
 Frc consts  --      1.1746                 0.9775                 0.9213
 IR Inten    --      1.4980                 0.8854                 0.7813

                     40                     41                     42
                      A                      A                      A
 Frequencies --   1031.6847              1050.5238              1083.0440
 Red. masses --      1.3609                 1.6192                 2.2738
 Frc consts  --      0.8534                 1.0528                 1.5715
 IR Inten    --      0.8591                 0.5079                 0.8195

                     43                     44                     45
                      A                      A                      A
 Frequencies --   1109.7762              1136.5912              1178.4467
 Red. masses --      2.8369                 1.5114                 1.8216
 Frc consts  --      2.0586                 1.1504                 1.4905
 IR Inten    --      0.0464                 8.6867                 0.4301

                     46                     47                     48
                      A                      A                      A
 Frequencies --   1187.1839              1198.3974              1208.2890
 Red. masses --      1.9987                 2.6348                 2.4313
 Frc consts  --      1.6597                 2.2295                 2.0914
 IR Inten    --     22.9672                 2.4746                10.4759

                     49                     50                     51
                      A                      A                      A
 Frequencies --   1258.2396              1265.3273              1281.0854
 Red. masses --      2.1334                 2.2154                 2.4590
 Frc consts  --      1.9900                 2.0899                 2.3778
 IR Inten    --     31.6579                25.3868                16.5792

                     52                     53                     54
                      A                      A                      A
 Frequencies --   1293.5716              1311.4908              1325.7369
 Red. masses --      1.4146                 1.4654                 1.3837
 Frc consts  --      1.3947                 1.4850                 1.4329
 IR Inten    --     10.2177                26.7080                13.0580

                     55                     56                     57
                      A                      A                      A
 Frequencies --   1356.2752              1367.9492              1390.6864
 Red. masses --      1.3317                 1.6532                 1.4284
 Frc consts  --      1.4433                 1.8227                 1.6277
 IR Inten    --      3.3616                 7.8661                 7.6957

                     58                     59                     60
                      A                      A                      A
 Frequencies --   1392.4372              1397.0131              1398.0119
 Red. masses --      1.2697                 1.2971                 1.3630
 Frc consts  --      1.4505                 1.4916                 1.5695
 IR Inten    --      2.1462                19.5449                11.2532

                     61                     62                     63
                      A                      A                      A
 Frequencies --   1418.0376              1422.5437              1430.2272
 Red. masses --      1.2896                 1.2828                 1.1440
 Frc consts  --      1.5278                 1.5294                 1.3788
 IR Inten    --      7.5699                 8.4595                12.6679

                     64                     65                     66
                      A                      A                      A
 Frequencies --   1455.2931              1471.7347              1476.8755
 Red. masses --      4.9310                 1.0498                 1.0560
 Frc consts  --      6.1530                 1.3397                 1.3571
 IR Inten    --      0.6192                 0.6461                 1.3766

                     67                     68                     69
                      A                      A                      A
 Frequencies --   1487.3709              1491.9287              1492.2646
 Red. masses --      1.0632                 1.0671                 1.0568
 Frc consts  --      1.3859                 1.3994                 1.3866
 IR Inten    --      3.4877                 2.3768                 2.7816

                     70                     71                     72
                      A                      A                      A
 Frequencies --   1497.8664              1503.5509              1507.4292
 Red. masses --      1.0645                 1.0668                 1.0564
 Frc consts  --      1.4072                 1.4209                 1.4144
 IR Inten    --      4.0497                 9.4878                 8.1428

                     73                     74                     75
                      A                      A                      A
 Frequencies --   1512.3816              1526.2771              1535.7331
 Red. masses --      1.0881                 1.0648                 1.0648
 Frc consts  --      1.4664                 1.4615                 1.4796
 IR Inten    --     28.9159                 6.6030                 3.3349

                     76                     77                     78
                      A                      A                      A
 Frequencies --   1830.9166              3049.8460              3069.2829
 Red. masses --     11.3396                 1.0660                 1.0478
 Frc consts  --     22.3968                 5.8418                 5.8159
 IR Inten    --    212.0054                 3.7198                 1.5863

                     79                     80                     81
                      A                      A                      A
 Frequencies --   3071.0431              3073.1453              3077.5568
 Red. masses --      1.0407                 1.0457                 1.0447
 Frc consts  --      5.7829                 5.8189                 5.8297
 IR Inten    --      6.2786                25.5660                15.0276

                     82                     83                     84
                      A                      A                      A
 Frequencies --   3081.7774              3092.3520              3109.1242
 Red. masses --      1.0384                 1.0701                 1.0888
 Frc consts  --      5.8106                 6.0293                 6.2014
 IR Inten    --     14.8019                 6.8709                18.6943

                     85                     86                     87
                      A                      A                      A
 Frequencies --   3114.1231              3114.4984              3128.0213
 Red. masses --      1.0880                 1.0691                 1.1027
 Frc consts  --      6.2166                 6.1100                 6.3567
 IR Inten    --      0.6548                12.1921                 6.7243

                     88                     89                     90
                      A                      A                      A
 Frequencies --   3138.6421              3142.7948              3151.0402
 Red. masses --      1.1019                 1.1019                 1.0990
 Frc consts  --      6.3957                 6.4123                 6.4294
 IR Inten    --      9.5540                19.5174                19.0569

                     91                     92                     93
                      A                      A                      A
 Frequencies --   3152.7167              3163.3413              3167.1729
 Red. masses --      1.1028                 1.1055                 1.1024
 Frc consts  --      6.4584                 6.5175                 6.5153
 IR Inten    --     14.7074                12.4718                 8.8825

                     94                     95                     96
                      A                      A                      A
 Frequencies --   3183.6517              3192.2039              3197.5701
 Red. masses --      1.1002                 1.1001                 1.0945
 Frc consts  --      6.5701                 6.6050                 6.5931
 IR Inten    --      4.3371                 6.8717                10.7070

 - Thermochemistry -
 -------------------
 Temperature   298.150 Kelvin.  Pressure   1.00000 Atm.
 Atom     1 has atomic number  8 and mass  15.99491

 Molecular mass:   198.14940 amu.
 Principal axes and moments of inertia in atomic units:
                           1         2         3
     Eigenvalues --  2049.651002708.033973530.95222
           X            0.99822  -0.05559  -0.02157
           Y            0.05567   0.99844   0.00324
           Z            0.02136  -0.00443   0.99976
 This molecule is an asymmetric top.
 Rotational symmetry number  1.
 Warning -- assumption of classical behavior for rotation
           may cause significant error
 Rotational temperatures (Kelvin)      0.04226     0.03198     0.02453
 Rotational constants (GHZ):           0.88051     0.66644     0.51112
 Zero-point vibrational energy     796411.7 (Joules/Mol)
                                  190.34695 (Kcal/Mol)
 Warning -- explicit consideration of  26 degrees of freedom as
           vibrations may cause significant error
 Vibrational temperatures:     60.25   111.96   161.78   229.67   273.35
          (Kelvin)            305.76   323.56   362.42   375.59   386.62
                              407.77   416.36   455.60   489.83   507.56
                              523.51   559.27   576.92   648.74   674.38
                              686.71   770.69   785.35   800.54   844.77
                              873.14  1014.88  1134.98  1140.69  1200.79
                             1217.22  1258.91  1313.22  1365.53  1372.63
                             1400.07  1414.79  1435.66  1466.04  1484.36
                             1511.47  1558.26  1596.72  1635.30  1695.52
                             1708.09  1724.23  1738.46  1810.33  1820.52
                             1843.20  1861.16  1886.94  1907.44  1951.38
                             1968.17  2000.89  2003.41  2009.99  2011.43
                             2040.24  2046.72  2057.78  2093.84  2117.50
                             2124.89  2140.00  2146.55  2147.04  2155.10
                             2163.27  2168.85  2175.98  2195.97  2209.58
                             2634.28  4388.05  4416.01  4418.55  4421.57
                             4427.92  4433.99  4449.20  4473.34  4480.53
                             4481.07  4500.53  4515.81  4521.78  4533.64
                             4536.06  4551.34  4556.86  4580.56  4592.87
                             4600.59

 Zero-point correction=                           0.303337 (Hartree/Particle)
 Thermal correction to Energy=                    0.317990
 Thermal correction to Enthalpy=                  0.318934
 Thermal correction to Gibbs Free Energy=         0.262834
 Sum of electronic and zero-point Energies=           -635.981364
 Sum of electronic and thermal Energies=              -635.966711
 Sum of electronic and thermal Enthalpies=            -635.965767
 Sum of electronic and thermal Free Energies=         -636.021867

                     E (Thermal)             CV                S
                      KCal/Mol        Cal/Mol-Kelvin    Cal/Mol-Kelvin
 Total                  199.542             58.561            118.072
 Electronic               0.000              0.000              1.377
 Translational            0.889              2.981             41.756
 Rotational               0.889              2.981             31.350
 Vibrational            197.764             52.600             43.588
 Vibration     1          0.594              1.980              5.168
 Vibration     2          0.599              1.964              3.945
 Vibration     3          0.607              1.939              3.226
 Vibration     4          0.621              1.892              2.554
 Vibration     5          0.633              1.854              2.228
 Vibration     6          0.644              1.822              2.022
 Vibration     7          0.650              1.803              1.919
 Vibration     8          0.664              1.760              1.717
 Vibration     9          0.669              1.744              1.655
 Vibration    10          0.673              1.731              1.604
 Vibration    11          0.682              1.704              1.513
 Vibration    12          0.686              1.693              1.478
 Vibration    13          0.704              1.642              1.327
 Vibration    14          0.720              1.595              1.210
 Vibration    15          0.729              1.570              1.154
 Vibration    16          0.737              1.547              1.106
 Vibration    17          0.757              1.494              1.005
 Vibration    18          0.767              1.468              0.959
 Vibration    19          0.810              1.359              0.793
 Vibration    20          0.826              1.319              0.741
 Vibration    21          0.834              1.300              0.717
 Vibration    22          0.891              1.171              0.575
 Vibration    23          0.901              1.149              0.553
 Vibration    24          0.912              1.126              0.531
 Vibration    25          0.944              1.059              0.472
 Vibration    26          0.966              1.017              0.438

 Optimization completed.
    -- Stationary point found.

 1\1\GINC-BD22\Freq\UM062X\def2TZVP\C11H20N1O2(2)\MIYAO\09-Jan-2025\0\\
 #P Geom=AllCheck Guess=TCheck SCRF=Check GenChk UM062X/def2TZVP Freq\\
 data_set_3-catalyst-Mix_11_opt\\0,2\O,2.3099773384,1.085866219,-0.2955
 248804\N,1.1697445213,0.526239451,-0.2759856346\C,0.0365701814,1.40321
 87911,0.1557795933\C,-1.2584454609,1.1253648561,-0.6338853521\C,-0.065
 9887946,-1.7454807593,-0.2909743563\C,1.2583983153,-0.9703730443,-0.19
 26346729\C,2.094300883,-1.3914788341,-1.4083897027\C,-0.0848208429,1.3
 558116778,1.6829344161\C,0.4246740573,2.8384485448,-0.2271826566\C,2.0

 Normal termination of Gaussian 16 at Thu Jan  9 11:34:48 2025.
