 Gaussian 16, Revision C.01,
 Gaussian 16:  ES64L-G16RevC.01  3-Jul-2019

 ----------------------------------
 #p M062X/DEF2TZVP opt freq pop=NBO
 ----------------------------------

 --------------------------
 data_set_12-nBA_dormant-24
 --------------------------
 Symbolic Z-matrix:
 Charge =  0 Multiplicity = 1

 SCF Done:  E(RM062X) =  -830.071377255     A.U. after   14 cycles
 SCF Done:  E(RM062X) =  -830.077641435     A.U. after   12 cycles
 SCF Done:  E(RM062X) =  -830.031530621     A.U. after   15 cycles
 SCF Done:  E(RM062X) =  -830.065986900     A.U. after   13 cycles
 SCF Done:  E(RM062X) =  -830.078898711     A.U. after   10 cycles
 SCF Done:  E(RM062X) =  -830.078717739     A.U. after   12 cycles
 SCF Done:  E(RM062X) =  -830.079224152     A.U. after   12 cycles
 SCF Done:  E(RM062X) =  -830.079513534     A.U. after   11 cycles
 SCF Done:  E(RM062X) =  -830.079630198     A.U. after   11 cycles
 SCF Done:  E(RM062X) =  -830.079651213     A.U. after   10 cycles
 SCF Done:  E(RM062X) =  -830.079666723     A.U. after   10 cycles
 SCF Done:  E(RM062X) =  -830.079670538     A.U. after   10 cycles
 SCF Done:  E(RM062X) =  -830.079677016     A.U. after    8 cycles
 SCF Done:  E(RM062X) =  -830.079680729     A.U. after   10 cycles
 SCF Done:  E(RM062X) =  -830.079681748     A.U. after   10 cycles
 SCF Done:  E(RM062X) =  -830.079682448     A.U. after    7 cycles
 SCF Done:  E(RM062X) =  -830.079682407     A.U. after    6 cycles
 SCF Done:  E(RM062X) =  -830.079682369     A.U. after    5 cycles
 Optimization completed.
    -- Stationary point found.
 Normal termination of Gaussian 16 at Tue Jan  7 20:31:07 2025.

 --------------------------------------------------------------------
 #P Geom=AllCheck Guess=TCheck SCRF=Check GenChk RM062X/def2TZVP Freq
 --------------------------------------------------------------------

 Structure from the checkpoint file:  "outputs/data_set_12-nBA_dormant-24.chk"
 --------------------------
 data_set_12-nBA_dormant-24
 --------------------------
 Charge =  0 Multiplicity = 1

                         Standard orientation:
 ---------------------------------------------------------------------
 Center     Atomic      Atomic             Coordinates (Angstroms)
 Number     Number       Type             X           Y           Z
 ---------------------------------------------------------------------
      1          6           0       -1.564707    2.901422    0.739008
      2          6           0       -1.126788    1.451493    0.767174
      3          6           0       -1.958430    0.629992   -0.211453
      4          8           0        0.243666    1.442245    0.409165
      5          7           0        0.707588    0.136687    0.108171
      6          6           0        1.287137    0.078208   -1.284620
      7          6           0        2.789460   -0.234612   -1.272716
      8          6           0        3.156248   -1.456231   -0.424606
      9          6           0        2.205758   -1.641495    0.765276
     10          6           0        1.553640   -0.339894    1.232347
     11          6           0        0.632733   -0.655156    2.414490
     12          6           0        2.606733    0.666453    1.721058
     13          6           0        1.087764    1.393667   -2.032801
     14          6           0        0.548906   -1.037255   -2.034864
     15          8           0       -2.109333    0.900598   -1.371736
     16          8           0       -2.544250   -0.407925    0.388572
     17          6           0       -3.358507   -1.238470   -0.450274
     18          6           0       -3.912852   -2.347386    0.409759
     19          1           0       -2.601088    2.993545    1.064400
     20          1           0       -1.473895    3.288291   -0.275211
     21          1           0       -0.932707    3.485790    1.406353
     22          1           0       -1.266812    1.019021    1.758567
     23          1           0        3.324502    0.650479   -0.929790
     24          1           0        3.102866   -0.390129   -2.307003
     25          1           0        4.183433   -1.349622   -0.071700
     26          1           0        3.138314   -2.357878   -1.038861
     27          1           0        2.738189   -2.077187    1.612711
     28          1           0        1.403345   -2.338109    0.510670
     29          1           0       -0.233598   -1.228837    2.082852
     30          1           0        0.289247    0.258893    2.899798
     31          1           0        1.178948   -1.233716    3.161692
     32          1           0        2.145117    1.638190    1.890420
     33          1           0        3.438311    0.793506    1.033139
     34          1           0        3.016253    0.314775    2.670208
     35          1           0        1.506733    1.277859   -3.034105
     36          1           0        1.603158    2.213341   -1.533522
     37          1           0        0.033867    1.646423   -2.124255
     38          1           0        0.649565   -1.995049   -1.523693
     39          1           0        0.955914   -1.143426   -3.043079
     40          1           0       -0.509851   -0.796297   -2.115852
     41          1           0       -2.739564   -1.621190   -1.263075
     42          1           0       -4.145522   -0.625444   -0.891775
     43          1           0       -3.105115   -2.937496    0.841888
     44          1           0       -4.538819   -3.005156   -0.193024
     45          1           0       -4.517145   -1.941139    1.220371
 ---------------------------------------------------------------------

 SCF Done:  E(RM062X) =  -830.079682369     A.U. after    1 cycles

 The electronic state is 1-A.
 Alpha  occ. eigenvalues --  -19.67225 -19.65327 -19.61494 -14.77919 -10.66634
 Alpha  occ. eigenvalues --  -10.59557 -10.59478 -10.56988 -10.56670 -10.53476
 Alpha  occ. eigenvalues --  -10.52974 -10.52794 -10.52754 -10.52286 -10.51690
 Alpha  occ. eigenvalues --  -10.51426 -10.50932 -10.50559  -1.24080  -1.19695
 Alpha  occ. eigenvalues --   -1.14388  -0.99266  -0.90607  -0.89841  -0.87737
 Alpha  occ. eigenvalues --   -0.84529  -0.80817  -0.78075  -0.76768  -0.76455
 Alpha  occ. eigenvalues --   -0.76069  -0.70313  -0.68668  -0.65597  -0.65189
 Alpha  occ. eigenvalues --   -0.61216  -0.59469  -0.58528  -0.56314  -0.55669
 Alpha  occ. eigenvalues --   -0.55052  -0.54596  -0.51972  -0.50769  -0.50115
 Alpha  occ. eigenvalues --   -0.49579  -0.48783  -0.48020  -0.47413  -0.46701
 Alpha  occ. eigenvalues --   -0.46133  -0.45268  -0.44940  -0.44643  -0.44170
 Alpha  occ. eigenvalues --   -0.43559  -0.43345  -0.42803  -0.42446  -0.41945
 Alpha  occ. eigenvalues --   -0.41744  -0.40854  -0.40322  -0.38441  -0.38268
 Alpha  occ. eigenvalues --   -0.37695  -0.36527  -0.35755  -0.35356  -0.32927
 Alpha  occ. eigenvalues --   -0.27725
 Alpha virt. eigenvalues --    0.04459   0.05283   0.07026   0.07632   0.08794
 Alpha virt. eigenvalues --    0.09269   0.10211   0.10370   0.10937   0.11466
 Alpha virt. eigenvalues --    0.11869   0.12725   0.13541   0.13812   0.14137

 Mulliken charges:
               1
     1  C   -0.420988
     2  C    0.003832
     3  C    0.338291
     4  O   -0.276265
     5  N   -0.037123
     6  C    0.050700
     7  C   -0.352610
     8  C   -0.317752
     9  C   -0.354063
    10  C    0.091250
    11  C   -0.481587
    12  C   -0.448612
    13  C   -0.427512
    14  C   -0.438928
    15  O   -0.340378
    16  O   -0.243659
    17  C   -0.099934
    18  C   -0.406337
    19  H    0.145105
    20  H    0.165211
    21  H    0.151369
    22  H    0.142694
    23  H    0.175807
    24  H    0.158062
    25  H    0.165614
    26  H    0.164728
    27  H    0.153019
    28  H    0.172742
    29  H    0.169024
    30  H    0.153930
    31  H    0.148182
    32  H    0.170451
    33  H    0.138389
    34  H    0.148531
    35  H    0.139454
    36  H    0.158627
    37  H    0.179039
    38  H    0.144082
    39  H    0.144208
    40  H    0.158686
    41  H    0.140781
    42  H    0.144949
    43  H    0.144246
    44  H    0.140918
    45  H    0.143829
 Sum of Mulliken charges =  -0.00000

 Dipole moment (field-independent basis, Debye):
    X=             -0.2634    Y=             -1.5171    Z=              1.3828  Tot=              2.0696
 Quadrupole moment (field-independent basis, Debye-Ang):
   XX=           -105.7071   YY=           -111.1866   ZZ=           -115.1879
   XY=              1.8661   XZ=             -2.7995   YZ=              3.6588

  Exact polarizability:     185.738      -0.794     173.415      -2.044      -0.482     172.613
 Approx polarizability:     208.085       0.368     210.471      -0.674      -1.914     214.936

 Summary of Natural Population Analysis:

                                       Natural Population
                Natural  -----------------------------------------------
    Atom  No    Charge         Core      Valence    Rydberg      Total
 -----------------------------------------------------------------------
      C    1   -0.60814      1.99946     4.59695    0.01173     6.60814
      C    2    0.01220      1.99911     3.96585    0.02283     5.98780
      C    3    0.80025      1.99943     3.16255    0.03777     5.19975
      O    4   -0.39775      1.99978     6.37852    0.01944     8.39775
      N    5   -0.20487      1.99934     5.17091    0.03462     7.20487
      C    6    0.12722      1.99934     3.85388    0.01955     5.87278
      C    7   -0.41430      1.99936     4.39975    0.01519     6.41430
      C    8   -0.41156      1.99946     4.39855    0.01355     6.41156
      C    9   -0.40730      1.99935     4.39290    0.01505     6.40730
      C   10    0.12601      1.99936     3.85469    0.01993     5.87399
      C   11   -0.60425      1.99941     4.59205    0.01279     6.60425
      C   12   -0.63664      1.99939     4.62356    0.01369     6.63664
      C   13   -0.60799      1.99939     4.59480    0.01380     6.60799
      C   14   -0.60985      1.99939     4.59686    0.01361     6.60985
      O   15   -0.61365      1.99974     6.58425    0.02966     8.61365
      O   16   -0.50046      1.99972     6.47622    0.02452     8.50046
      C   17   -0.07413      1.99930     4.05792    0.01691     6.07413
      C   18   -0.61621      1.99950     4.60583    0.01088     6.61621
      H   19    0.21360      0.00000     0.78563    0.00076     0.78640
      H   20    0.22692      0.00000     0.77196    0.00113     0.77308
      H   21    0.21839      0.00000     0.78060    0.00101     0.78161
      H   22    0.18157      0.00000     0.81605    0.00238     0.81843
      H   23    0.20276      0.00000     0.79580    0.00144     0.79724
      H   24    0.21321      0.00000     0.78566    0.00113     0.78679
      H   25    0.20867      0.00000     0.79020    0.00113     0.79133
      H   26    0.20948      0.00000     0.78939    0.00112     0.79052
      H   27    0.21305      0.00000     0.78583    0.00112     0.78695
      H   28    0.20759      0.00000     0.79081    0.00160     0.79241
      H   29    0.21923      0.00000     0.77940    0.00137     0.78077
      H   30    0.20363      0.00000     0.79532    0.00105     0.79637
      H   31    0.20596      0.00000     0.79304    0.00100     0.79404
      H   32    0.22563      0.00000     0.77319    0.00118     0.77437
      H   33    0.20459      0.00000     0.79431    0.00110     0.79541
      H   34    0.20719      0.00000     0.79195    0.00086     0.79281
      H   35    0.20275      0.00000     0.79638    0.00087     0.79725
      H   36    0.21202      0.00000     0.78695    0.00103     0.78798
      H   37    0.23617      0.00000     0.76275    0.00108     0.76383
      H   38    0.20028      0.00000     0.79848    0.00123     0.79972
      H   39    0.20026      0.00000     0.79880    0.00094     0.79974
      H   40    0.22249      0.00000     0.77603    0.00148     0.77751
      H   41    0.18479      0.00000     0.81313    0.00208     0.81521
      H   42    0.18366      0.00000     0.81478    0.00156     0.81634
      H   43    0.21197      0.00000     0.78698    0.00105     0.78803
      H   44    0.21433      0.00000     0.78504    0.00063     0.78567
      H   45    0.21120      0.00000     0.78783    0.00097     0.78880
 =======================================================================
   * Total *    0.00000     35.98983   105.63236    0.37781   142.00000

                      1                      2                      3
                      A                      A                      A
 Frequencies --     22.3979                27.4680                64.3020
 Red. masses --      3.5325                 3.4408                 2.6650
 Frc consts  --      0.0010                 0.0015                 0.0065
 IR Inten    --      0.0792                 0.5263                 0.0493

                      4                      5                      6
                      A                      A                      A
 Frequencies --     82.7726               118.3244               123.0994
 Red. masses --      2.6191                 3.0160                 3.5282
 Frc consts  --      0.0106                 0.0249                 0.0315
 IR Inten    --      0.5941                 1.6246                 1.2620

                      7                      8                      9
                      A                      A                      A
 Frequencies --    127.0263               148.8882               157.9602
 Red. masses --      1.4226                 2.7090                 3.5112
 Frc consts  --      0.0135                 0.0354                 0.0516
 IR Inten    --      0.0452                 2.0569                 1.1502

                     10                     11                     12
                      A                      A                      A
 Frequencies --    181.0334               203.8941               225.3847
 Red. masses --      1.9090                 2.4041                 1.9455
 Frc consts  --      0.0369                 0.0589                 0.0582
 IR Inten    --      0.0809                 1.9725                 0.2578

                     13                     14                     15
                      A                      A                      A
 Frequencies --    236.5502               248.0276               252.4612
 Red. masses --      1.0949                 1.6431                 1.5096
 Frc consts  --      0.0361                 0.0596                 0.0567
 IR Inten    --      0.2885                 0.0441                 0.2128

                     16                     17                     18
                      A                      A                      A
 Frequencies --    268.6957               292.2779               301.9137
 Red. masses --      1.3976                 2.2180                 2.9508
 Frc consts  --      0.0594                 0.1116                 0.1585
 IR Inten    --      0.1930                 1.6378                 0.9940

                     19                     20                     21
                      A                      A                      A
 Frequencies --    316.6559               323.8247               332.9985
 Red. masses --      3.2259                 1.0995                 1.3484
 Frc consts  --      0.1906                 0.0679                 0.0881
 IR Inten    --      5.1026                 0.0940                 1.2231

                     22                     23                     24
                      A                      A                      A
 Frequencies --    354.1570               368.6880               380.7783
 Red. masses --      2.1928                 2.4276                 2.8080
 Frc consts  --      0.1620                 0.1944                 0.2399
 IR Inten    --      0.9210                 2.3493                 2.0277

                     25                     26                     27
                      A                      A                      A
 Frequencies --    383.4453               396.1468               407.4297
 Red. masses --      3.3794                 2.9538                 2.5981
 Frc consts  --      0.2927                 0.2731                 0.2541
 IR Inten    --      6.1043                 3.6311                 0.9961

                     28                     29                     30
                      A                      A                      A
 Frequencies --    427.0453               469.0672               476.6086
 Red. masses --      3.0627                 4.5884                 2.6840
 Frc consts  --      0.3291                 0.5948                 0.3592
 IR Inten    --      4.8745                 2.5383                 0.1217

                     31                     32                     33
                      A                      A                      A
 Frequencies --    525.1122               540.7890               590.5180
 Red. masses --      2.9951                 3.1112                 3.3294
 Frc consts  --      0.4866                 0.5361                 0.6840
 IR Inten    --      2.9506                 4.1833                 5.4096

                     34                     35                     36
                      A                      A                      A
 Frequencies --    634.5553               711.8172               738.4165
 Red. masses --      3.4260                 3.1420                 2.9563
 Frc consts  --      0.8128                 0.9380                 0.9497
 IR Inten    --      7.5433                 7.5323                19.6584

                     37                     38                     39
                      A                      A                      A
 Frequencies --    748.1226               802.8202               818.0546
 Red. masses --      1.7142                 2.6834                 1.4193
 Frc consts  --      0.5653                 1.0190                 0.5596
 IR Inten    --      6.9597                12.7548                 3.5578

                     40                     41                     42
                      A                      A                      A
 Frequencies --    836.6330               838.8857               894.2745
 Red. masses --      2.2208                 2.3731                 2.3505
 Frc consts  --      0.9159                 0.9839                 1.1075
 IR Inten    --      1.8323                 1.5585                 0.6628

                     43                     44                     45
                      A                      A                      A
 Frequencies --    898.3200               914.6894               926.7093
 Red. masses --      2.5040                 2.4301                 1.7883
 Frc consts  --      1.1906                 1.1979                 0.9048
 IR Inten    --      2.6954                 1.7774                 0.4557

                     46                     47                     48
                      A                      A                      A
 Frequencies --    952.1738               955.6716               958.1118
 Red. masses --      1.5729                 1.4624                 1.9740
 Frc consts  --      0.8402                 0.7869                 1.0676
 IR Inten    --      2.2460                 1.1513                 3.8553

                     49                     50                     51
                      A                      A                      A
 Frequencies --    988.8926               993.5665              1003.3245
 Red. masses --      1.6229                 1.6806                 1.6168
 Frc consts  --      0.9351                 0.9775                 0.9589
 IR Inten    --      2.7916                 4.7572                 0.8945

                     52                     53                     54
                      A                      A                      A
 Frequencies --   1018.5379              1039.4446              1060.8271
 Red. masses --      1.4614                 1.8375                 2.0933
 Frc consts  --      0.8932                 1.1697                 1.3880
 IR Inten    --      0.9119                 3.9260                 2.4993

                     55                     56                     57
                      A                      A                      A
 Frequencies --   1073.2366              1086.8374              1090.7789
 Red. masses --      1.7818                 3.1352                 2.7850
 Frc consts  --      1.2092                 2.1820                 1.9523
 IR Inten    --      3.0266                31.0613                31.2833

                     58                     59                     60
                      A                      A                      A
 Frequencies --   1114.3392              1139.4081              1149.2471
 Red. masses --      1.7964                 2.9264                 1.5665
 Frc consts  --      1.3143                 2.2384                 1.2190
 IR Inten    --      1.5889                34.0841                 1.5560

                     61                     62                     63
                      A                      A                      A
 Frequencies --   1153.8865              1172.1341              1186.2710
 Red. masses --      2.4022                 2.0359                 1.5826
 Frc consts  --      1.8845                 1.6480                 1.3122
 IR Inten    --      5.8253                28.2631                 4.1213

                     64                     65                     66
                      A                      A                      A
 Frequencies --   1197.4278              1220.9419              1225.7346
 Red. masses --      3.0251                 2.5326                 2.6668
 Frc consts  --      2.5556                 2.2243                 2.3607
 IR Inten    --    127.8407                 2.5212                 3.5746

                     67                     68                     69
                      A                      A                      A
 Frequencies --   1259.0583              1260.6417              1281.6688
 Red. masses --      2.3116                 2.7860                 1.6188
 Frc consts  --      2.1590                 2.6086                 1.5667
 IR Inten    --      9.4630               318.4167                 7.9169

                     70                     71                     72
                      A                      A                      A
 Frequencies --   1287.7426              1301.5484              1310.6726
 Red. masses --      2.4958                 1.8005                 1.0900
 Frc consts  --      2.4385                 1.7970                 1.1032
 IR Inten    --     15.5960                19.4841                 1.0237

                     73                     74                     75
                      A                      A                      A
 Frequencies --   1325.4090              1359.5671              1371.1167
 Red. masses --      1.4221                 1.5057                 1.2843
 Frc consts  --      1.4719                 1.6398                 1.4226
 IR Inten    --      4.3970                 3.4776                12.8452

                     76                     77                     78
                      A                      A                      A
 Frequencies --   1376.6996              1390.0051              1394.4052
 Red. masses --      1.4769                 1.4021                 1.2854
 Frc consts  --      1.6493                 1.5961                 1.4725
 IR Inten    --      1.8453                 0.5770                 3.3178

                     79                     80                     81
                      A                      A                      A
 Frequencies --   1396.5273              1402.6355              1407.9490
 Red. masses --      1.4042                 1.3424                 1.3328
 Frc consts  --      1.6135                 1.5561                 1.5566
 IR Inten    --     12.9692                10.9982                17.7214

                     82                     83                     84
                      A                      A                      A
 Frequencies --   1413.2431              1419.6737              1425.0414
 Red. masses --      1.2739                 1.3813                 1.2853
 Frc consts  --      1.4990                 1.6402                 1.5378
 IR Inten    --     22.5054                60.5940                13.7089

                     85                     86                     87
                      A                      A                      A
 Frequencies --   1446.5176              1474.4786              1479.8877
 Red. masses --      1.6591                 1.0570                 1.0516
 Frc consts  --      2.0454                 1.3539                 1.3569
 IR Inten    --      8.9118                 0.4063                 0.5233

                     88                     89                     90
                      A                      A                      A
 Frequencies --   1485.1325              1486.5820              1489.1471
 Red. masses --      1.0600                 1.0643                 1.0383
 Frc consts  --      1.3775                 1.3858                 1.3566
 IR Inten    --      2.1754                 5.1043                 6.7600

                     91                     92                     93
                      A                      A                      A
 Frequencies --   1490.9352              1496.6395              1498.3223
 Red. masses --      1.0576                 1.0640                 1.0928
 Frc consts  --      1.3851                 1.4041                 1.4455
 IR Inten    --      3.2044                 1.4641                11.1316

                     94                     95                     96
                      A                      A                      A
 Frequencies --   1501.0810              1502.1586              1508.7855
 Red. masses --      1.0532                 1.0567                 1.0709
 Frc consts  --      1.3982                 1.4048                 1.4364
 IR Inten    --      0.8621                 7.7641                 7.1749

                     97                     98                     99
                      A                      A                      A
 Frequencies --   1510.9253              1516.8051              1520.4133
 Red. masses --      1.0771                 1.0673                 1.0571
 Frc consts  --      1.4487                 1.4467                 1.4397
 IR Inten    --      2.5506                 3.2414                 8.8359

                    100                    101                    102
                      A                      A                      A
 Frequencies --   1524.2794              1526.8311              1847.0698
 Red. masses --      1.0909                 1.0778                11.5401
 Frc consts  --      1.4933                 1.4804                23.1967
 IR Inten    --      5.3517                14.3542               201.9623

                    103                    104                    105
                      A                      A                      A
 Frequencies --   3060.8444              3064.7014              3069.6865
 Red. masses --      1.0365                 1.0413                 1.0539
 Frc consts  --      5.7216                 5.7622                 5.8512
 IR Inten    --      7.3247                16.0536                27.3598

                    106                    107                    108
                      A                      A                      A
 Frequencies --   3072.5813              3074.8465              3075.7581
 Red. masses --      1.0449                 1.0356                 1.0587
 Frc consts  --      5.8119                 5.7688                 5.9013
 IR Inten    --      4.6562                13.2931                30.2189

                    109                    110                    111
                      A                      A                      A
 Frequencies --   3076.3627              3076.5460              3083.9412
 Red. masses --      1.0429                 1.0350                 1.0578
 Frc consts  --      5.8155                 5.7716                 5.9275
 IR Inten    --     30.8712                10.3472                11.5279

                    112                    113                    114
                      A                      A                      A
 Frequencies --   3086.8596              3100.3252              3108.6980
 Red. masses --      1.0632                 1.1013                 1.0855
 Frc consts  --      5.9689                 6.2371                 6.1807
 IR Inten    --     37.9485                 4.6780                17.2575

                    115                    116                    117
                      A                      A                      A
 Frequencies --   3114.4767              3123.2305              3127.9270
 Red. masses --      1.1028                 1.1074                 1.1024
 Frc consts  --      6.3023                 6.3644                 6.3549
 IR Inten    --     11.3383                 4.4823                33.8304

                    118                    119                    120
                      A                      A                      A
 Frequencies --   3134.3552              3136.6175              3144.0044
 Red. masses --      1.0999                 1.0984                 1.0998
 Frc consts  --      6.3665                 6.3670                 6.4053
 IR Inten    --     26.2485                19.4125                25.0686

                    121                    122                    123
                      A                      A                      A
 Frequencies --   3146.0611              3148.5451              3153.2970
 Red. masses --      1.0961                 1.1034                 1.1020
 Frc consts  --      6.3921                 6.4446                 6.4560
 IR Inten    --     19.8548                16.8997                15.7150

                    124                    125                    126
                      A                      A                      A
 Frequencies --   3155.2504              3156.7004              3164.6932
 Red. masses --      1.1023                 1.1047                 1.1012
 Frc consts  --      6.4660                 6.4858                 6.4981
 IR Inten    --     10.1058                24.6124                 5.9905

                    127                    128                    129
                      A                      A                      A
 Frequencies --   3166.5211              3175.8561              3184.8537
 Red. masses --      1.1036                 1.1015                 1.0976
 Frc consts  --      6.5195                 6.5459                 6.5598
 IR Inten    --      8.3078                 3.3377                16.7815

 - Thermochemistry -
 -------------------
 Temperature   298.150 Kelvin.  Pressure   1.00000 Atm.
 Atom     1 has atomic number  6 and mass  12.00000

 Molecular mass:   257.19909 amu.
 Principal axes and moments of inertia in atomic units:
                           1         2         3
     Eigenvalues --  3151.142255747.453325944.31298
           X            0.99989   0.01364  -0.00563
           Y           -0.01343   0.99926   0.03598
           Z            0.00612  -0.03590   0.99934
 This molecule is an asymmetric top.
 Rotational symmetry number  1.
 Warning -- assumption of classical behavior for rotation
           may cause significant error
 Rotational temperatures (Kelvin)      0.02749     0.01507     0.01457
 Rotational constants (GHZ):           0.57273     0.31401     0.30361
 Zero-point vibrational energy    1063438.1 (Joules/Mol)
                                  254.16781 (Kcal/Mol)
 Warning -- explicit consideration of  33 degrees of freedom as
           vibrations may cause significant error
 Vibrational temperatures:     32.23    39.52    92.52   119.09   170.24
          (Kelvin)            177.11   182.76   214.22   227.27   260.47
                              293.36   324.28   340.34   356.86   363.24
                              386.59   420.52   434.39   455.60   465.91
                              479.11   509.55   530.46   547.85   551.69
                              569.97   586.20   614.42   674.88   685.73
                              755.52   778.07   849.62   912.98  1024.15
                             1062.42  1076.38  1155.08  1177.00  1203.73
                             1206.97  1286.66  1292.48  1316.03  1333.33
                             1369.97  1375.00  1378.51  1422.80  1429.52
                             1443.56  1465.45  1495.53  1526.29  1544.15
                             1563.72  1569.39  1603.29  1639.35  1653.51
                             1660.19  1686.44  1706.78  1722.83  1756.66
                             1763.56  1811.50  1813.78  1844.04  1852.77
                             1872.64  1885.77  1906.97  1956.11  1972.73
                             1980.76  1999.91  2006.24  2009.29  2018.08
                             2025.72  2033.34  2042.59  2050.32  2081.22
                             2121.45  2129.23  2136.77  2138.86  2142.55
                             2145.12  2153.33  2155.75  2159.72  2161.27
                             2170.81  2173.88  2182.34  2187.54  2193.10
                             2196.77  2657.52  4403.87  4409.42  4416.59
                             4420.76  4424.02  4425.33  4426.20  4426.46
                             4437.10  4441.30  4460.68  4472.72  4481.04
                             4493.63  4500.39  4509.64  4512.89  4523.52
                             4526.48  4530.05  4536.89  4539.70  4541.79
                             4553.29  4555.92  4569.35  4582.29

 Zero-point correction=                           0.405042 (Hartree/Particle)
 Thermal correction to Energy=                    0.425289
 Thermal correction to Enthalpy=                  0.426233
 Thermal correction to Gibbs Free Energy=         0.357211
 Sum of electronic and zero-point Energies=           -829.674640
 Sum of electronic and thermal Energies=              -829.654394
 Sum of electronic and thermal Enthalpies=            -829.653449
 Sum of electronic and thermal Free Energies=         -829.722472

                     E (Thermal)             CV                S
                      KCal/Mol        Cal/Mol-Kelvin    Cal/Mol-Kelvin
 Total                  266.873             78.302            145.270
 Electronic               0.000              0.000              0.000
 Translational            0.889              2.981             42.534
 Rotational               0.889              2.981             33.043
 Vibrational            265.095             72.340             69.693
 Vibration     1          0.593              1.985              6.409
 Vibration     2          0.593              1.984              6.004
 Vibration     3          0.597              1.971              4.321
 Vibration     4          0.600              1.961              3.824
 Vibration     5          0.608              1.934              3.128
 Vibration     6          0.610              1.930              3.051
 Vibration     7          0.611              1.926              2.991
 Vibration     8          0.618              1.904              2.686
 Vibration     9          0.621              1.894              2.574
 Vibration    10          0.630              1.865              2.318
 Vibration    11          0.640              1.834              2.098
 Vibration    12          0.650              1.802              1.915
 Vibration    13          0.655              1.785              1.829
 Vibration    14          0.662              1.766              1.745
 Vibration    15          0.664              1.759              1.713
 Vibration    16          0.673              1.731              1.605
 Vibration    17          0.688              1.688              1.461
 Vibration    18          0.694              1.670              1.406
 Vibration    19          0.704              1.642              1.327
 Vibration    20          0.708              1.628              1.291
 Vibration    21          0.715              1.610              1.245
 Vibration    22          0.730              1.567              1.148
 Vibration    23          0.741              1.537              1.085
 Vibration    24          0.751              1.511              1.036
 Vibration    25          0.753              1.506              1.026
 Vibration    26          0.763              1.478              0.977
 Vibration    27          0.772              1.454              0.936
 Vibration    28          0.789              1.411              0.868
 Vibration    29          0.826              1.319              0.740
 Vibration    30          0.833              1.302              0.719
 Vibration    31          0.880              1.194              0.598
 Vibration    32          0.896              1.160              0.564
 Vibration    33          0.948              1.052              0.466

 Optimization completed.
    -- Stationary point found.
 Normal termination of Gaussian 16 at Tue Jan  7 22:42:49 2025.
