 Gaussian 16, Revision C.01,
 Gaussian 16:  ES64L-G16RevC.01  3-Jul-2019

 ----------------------------------
 #p M062X/DEF2TZVP opt freq pop=NBO
 ----------------------------------

 --------------------------
 data_set_12-nBA_dormant-25
 --------------------------
 Symbolic Z-matrix:
 Charge =  0 Multiplicity = 1

 SCF Done:  E(RM062X) =  -791.955159159     A.U. after   14 cycles
 SCF Done:  E(RM062X) =  -791.959304009     A.U. after   12 cycles
 SCF Done:  E(RM062X) =  -791.889870109     A.U. after   14 cycles
 SCF Done:  E(RM062X) =  -791.955263237     A.U. after   13 cycles
 SCF Done:  E(RM062X) =  -791.961492248     A.U. after   10 cycles
 SCF Done:  E(RM062X) =  -791.961357684     A.U. after   11 cycles
 SCF Done:  E(RM062X) =  -791.962853809     A.U. after   12 cycles
 SCF Done:  E(RM062X) =  -791.961331902     A.U. after   11 cycles
 SCF Done:  E(RM062X) =  -791.960838150     A.U. after   11 cycles
 SCF Done:  E(RM062X) =  -791.959885601     A.U. after   11 cycles
 SCF Done:  E(RM062X) =  -791.963231937     A.U. after   11 cycles
 SCF Done:  E(RM062X) =  -791.963278205     A.U. after   10 cycles
 SCF Done:  E(RM062X) =  -791.963324639     A.U. after   11 cycles
 SCF Done:  E(RM062X) =  -791.963350113     A.U. after    9 cycles
 SCF Done:  E(RM062X) =  -791.963360113     A.U. after    9 cycles
 SCF Done:  E(RM062X) =  -791.963363770     A.U. after    9 cycles
 SCF Done:  E(RM062X) =  -791.963364264     A.U. after    7 cycles
 SCF Done:  E(RM062X) =  -791.963364348     A.U. after    7 cycles
 SCF Done:  E(RM062X) =  -791.963364354     A.U. after    5 cycles
 Optimization completed.
    -- Stationary point found.
 Normal termination of Gaussian 16 at Tue Jan  7 21:54:16 2025.

 --------------------------------------------------------------------
 #P Geom=AllCheck Guess=TCheck SCRF=Check GenChk RM062X/def2TZVP Freq
 --------------------------------------------------------------------

 Structure from the checkpoint file:  "outputs/data_set_12-nBA_dormant-25.chk"
 --------------------------
 data_set_12-nBA_dormant-25
 --------------------------
 Charge =  0 Multiplicity = 1

                         Standard orientation:
 ---------------------------------------------------------------------
 Center     Atomic      Atomic             Coordinates (Angstroms)
 Number     Number       Type             X           Y           Z
 ---------------------------------------------------------------------
      1          6           0       -0.858864   -2.496504   -1.889349
      2          6           0       -0.770701   -1.073140   -1.380313
      3          6           0       -1.644713   -0.888117   -0.136907
      4          8           0       -1.746048   -1.679330    0.760103
      5          8           0       -2.353391    0.241373   -0.196888
      6          6           0       -3.164484    0.530414    0.949187
      7          6           0       -3.824701    1.866218    0.710681
      8          8           0        0.605436   -0.807024   -1.120217
      9          7           0        0.811990    0.090858   -0.038636
     10          6           0        1.270304    1.385635   -0.627708
     11          6           0        0.164825    1.872021   -1.573748
     12          6           0        2.560604    1.299293   -1.462561
     13          6           0        1.405002    2.435560    0.473733
     14          6           0        1.623566   -0.604966    1.029223
     15          6           0        1.398594   -2.119760    0.953952
     16          6           0        1.081232   -0.133620    2.383584
     17          6           0        3.143825   -0.401393    0.968816
     18          1           0       -1.873313   -2.721410   -2.219787
     19          1           0       -0.582848   -3.191589   -1.098071
     20          1           0       -0.179784   -2.620172   -2.732066
     21          1           0       -1.138674   -0.372692   -2.133429
     22          1           0       -2.520797    0.541923    1.830444
     23          1           0       -3.891048   -0.272893    1.077850
     24          1           0       -3.075329    2.647271    0.582356
     25          1           0       -4.453046    2.126029    1.562429
     26          1           0       -4.447931    1.834224   -0.182564
     27          1           0       -0.810290    1.837425   -1.090874
     28          1           0        0.137394    1.271320   -2.482351
     29          1           0        0.377108    2.900746   -1.867058
     30          1           0        2.558753    0.387108   -2.059852
     31          1           0        3.465698    1.330521   -0.863189
     32          1           0        2.594299    2.147521   -2.148582
     33          1           0        2.205799    2.222130    1.177124
     34          1           0        0.468187    2.530885    1.025702
     35          1           0        1.628032    3.396139    0.007127
     36          1           0        1.883282   -2.569461    1.821662
     37          1           0        1.842401   -2.542961    0.054769
     38          1           0        0.343035   -2.374103    0.985202
     39          1           0        1.606732   -0.653123    3.187202
     40          1           0        0.019864   -0.374636    2.452306
     41          1           0        1.206979    0.934864    2.540677
     42          1           0        3.547026   -0.738724    0.014371
     43          1           0        3.596427   -1.009413    1.753751
     44          1           0        3.453206    0.627074    1.139786
 ---------------------------------------------------------------------

 SCF Done:  E(RM062X) =  -791.963364354     A.U. after    1 cycles

 The electronic state is 1-A.
 Alpha  occ. eigenvalues --  -19.67191 -19.65224 -19.61590 -14.78412 -10.66950
 Alpha  occ. eigenvalues --  -10.59762 -10.59528 -10.57428 -10.57122 -10.53562
 Alpha  occ. eigenvalues --  -10.52772 -10.52368 -10.51692 -10.51460 -10.51416
 Alpha  occ. eigenvalues --  -10.51212 -10.50492  -1.24196  -1.19483  -1.14501
 Alpha  occ. eigenvalues --   -0.98312  -0.90911  -0.89096  -0.86811  -0.81525
 Alpha  occ. eigenvalues --   -0.78519  -0.77870  -0.76755  -0.76623  -0.76039
 Alpha  occ. eigenvalues --   -0.70064  -0.65782  -0.65395  -0.62336  -0.59431
 Alpha  occ. eigenvalues --   -0.58873  -0.56529  -0.55902  -0.54393  -0.53690
 Alpha  occ. eigenvalues --   -0.51469  -0.50282  -0.50144  -0.49393  -0.48966
 Alpha  occ. eigenvalues --   -0.48127  -0.47655  -0.46761  -0.46003  -0.45755
 Alpha  occ. eigenvalues --   -0.44829  -0.44072  -0.43788  -0.43531  -0.43191
 Alpha  occ. eigenvalues --   -0.42602  -0.42373  -0.42055  -0.41882  -0.41236
 Alpha  occ. eigenvalues --   -0.40044  -0.38731  -0.37977  -0.37499  -0.36256
 Alpha  occ. eigenvalues --   -0.35776  -0.33239  -0.28301
 Alpha virt. eigenvalues --    0.04255   0.05250   0.07542   0.08162   0.09007
 Alpha virt. eigenvalues --    0.09857   0.10365   0.10814   0.11368   0.11780
 Alpha virt. eigenvalues --    0.11946   0.12741   0.13359   0.13471   0.14213

 Mulliken charges:
               1
     1  C   -0.415446
     2  C   -0.023254
     3  C    0.348982
     4  O   -0.338754
     5  O   -0.252809
     6  C   -0.108831
     7  C   -0.407670
     8  O   -0.272202
     9  N   -0.050288
    10  C    0.080823
    11  C   -0.473571
    12  C   -0.471991
    13  C   -0.476722
    14  C    0.042939
    15  C   -0.477412
    16  C   -0.428382
    17  C   -0.468236
    18  H    0.146583
    19  H    0.162036
    20  H    0.154914
    21  H    0.148002
    22  H    0.144968
    23  H    0.146492
    24  H    0.143331
    25  H    0.144055
    26  H    0.146394
    27  H    0.160063
    28  H    0.162600
    29  H    0.150068
    30  H    0.184785
    31  H    0.146001
    32  H    0.146962
    33  H    0.148340
    34  H    0.169236
    35  H    0.153658
    36  H    0.142492
    37  H    0.166950
    38  H    0.187102
    39  H    0.143986
    40  H    0.168262
    41  H    0.149495
    42  H    0.179519
    43  H    0.151548
    44  H    0.144985
 Sum of Mulliken charges =  -0.00000

 Dipole moment (field-independent basis, Debye):
    X=             -0.6366    Y=              1.8262    Z=             -0.3569  Tot=              1.9667
 Quadrupole moment (field-independent basis, Debye-Ang):
   XX=           -102.4348   YY=           -109.3571   ZZ=           -107.2265
   XY=             -2.5754   XZ=              1.3819   YZ=              3.8631

  Exact polarizability:     176.306      -2.716     172.511       1.703      -0.522     162.113
 Approx polarizability:     199.191      -1.406     204.965       1.178      -2.876     202.782

 Summary of Natural Population Analysis:

                                       Natural Population
                Natural  -----------------------------------------------
    Atom  No    Charge         Core      Valence    Rydberg      Total
 -----------------------------------------------------------------------
      C    1   -0.61012      1.99946     4.59857    0.01209     6.61012
      C    2    0.00894      1.99911     3.96954    0.02241     5.99106
      C    3    0.81018      1.99944     3.15105    0.03933     5.18982
      O    4   -0.61148      1.99974     6.58160    0.03013     8.61148
      O    5   -0.50581      1.99972     6.48112    0.02497     8.50581
      C    6   -0.07401      1.99930     4.05747    0.01724     6.07401
      C    7   -0.61675      1.99950     4.60636    0.01088     6.61675
      O    8   -0.40447      1.99979     6.38744    0.01723     8.40447
      N    9   -0.19542      1.99937     5.16145    0.03461     7.19542
      C   10    0.12221      1.99939     3.86016    0.01824     5.87779
      C   11   -0.60865      1.99940     4.59585    0.01340     6.60865
      C   12   -0.63573      1.99939     4.62284    0.01349     6.63573
      C   13   -0.60957      1.99939     4.59716    0.01303     6.60957
      C   14    0.12043      1.99937     3.86239    0.01781     5.87957
      C   15   -0.61154      1.99939     4.59792    0.01423     6.61154
      C   16   -0.60620      1.99939     4.59355    0.01326     6.60620
      C   17   -0.62579      1.99940     4.61304    0.01335     6.62579
      H   18    0.21358      0.00000     0.78565    0.00077     0.78642
      H   19    0.22560      0.00000     0.77330    0.00110     0.77440
      H   20    0.21850      0.00000     0.78052    0.00097     0.78150
      H   21    0.18118      0.00000     0.81649    0.00233     0.81882
      H   22    0.18477      0.00000     0.81303    0.00220     0.81523
      H   23    0.18465      0.00000     0.81378    0.00157     0.81535
      H   24    0.21102      0.00000     0.78789    0.00110     0.78898
      H   25    0.21502      0.00000     0.78436    0.00062     0.78498
      H   26    0.21182      0.00000     0.78721    0.00097     0.78818
      H   27    0.22474      0.00000     0.77390    0.00135     0.77526
      H   28    0.20742      0.00000     0.79158    0.00100     0.79258
      H   29    0.20481      0.00000     0.79431    0.00088     0.79519
      H   30    0.22363      0.00000     0.77518    0.00119     0.77637
      H   31    0.20677      0.00000     0.79228    0.00095     0.79323
      H   32    0.20729      0.00000     0.79182    0.00089     0.79271
      H   33    0.20463      0.00000     0.79419    0.00119     0.79537
      H   34    0.21262      0.00000     0.78613    0.00125     0.78738
      H   35    0.21202      0.00000     0.78709    0.00089     0.78798
      H   36    0.20194      0.00000     0.79724    0.00082     0.79806
      H   37    0.21306      0.00000     0.78588    0.00106     0.78694
      H   38    0.23711      0.00000     0.76176    0.00113     0.76289
      H   39    0.20319      0.00000     0.79590    0.00091     0.79681
      H   40    0.21984      0.00000     0.77895    0.00121     0.78016
      H   41    0.20442      0.00000     0.79463    0.00095     0.79558
      H   42    0.21287      0.00000     0.78609    0.00103     0.78713
      H   43    0.21237      0.00000     0.78675    0.00088     0.78763
      H   44    0.19892      0.00000     0.79989    0.00119     0.80108
 =======================================================================
   * Total *    0.00000     33.99056   101.65331    0.35613   136.00000

                      1                      2                      3
                      A                      A                      A
 Frequencies --     28.1993                52.6185                65.2171
 Red. masses --      3.4066                 3.4478                 2.8065
 Frc consts  --      0.0016                 0.0056                 0.0070
 IR Inten    --      0.5453                 0.0480                 0.0952

                      4                      5                      6
                      A                      A                      A
 Frequencies --     91.7227               119.7545               125.3814
 Red. masses --      2.4566                 3.1908                 2.9187
 Frc consts  --      0.0122                 0.0270                 0.0270
 IR Inten    --      1.1891                 0.3361                 0.6286

                      7                      8                      9
                      A                      A                      A
 Frequencies --    143.2242               164.0540               171.2256
 Red. masses --      3.6270                 2.8249                 3.6897
 Frc consts  --      0.0438                 0.0448                 0.0637
 IR Inten    --      1.4265                 2.1308                 0.9411

                     10                     11                     12
                      A                      A                      A
 Frequencies --    204.0004               220.3047               225.8554
 Red. masses --      1.4324                 1.3273                 1.5835
 Frc consts  --      0.0351                 0.0380                 0.0476
 IR Inten    --      0.5759                 0.5115                 0.1189

                     13                     14                     15
                      A                      A                      A
 Frequencies --    240.4049               263.8697               276.8480
 Red. masses --      1.3366                 1.3387                 2.1595
 Frc consts  --      0.0455                 0.0549                 0.0975
 IR Inten    --      0.2318                 0.4675                 0.0463

                     16                     17                     18
                      A                      A                      A
 Frequencies --    282.5588               294.4430               307.4171
 Red. masses --      2.1200                 1.8766                 2.3196
 Frc consts  --      0.0997                 0.0959                 0.1292
 IR Inten    --      0.2960                 0.0752                 4.0312

                     19                     20                     21
                      A                      A                      A
 Frequencies --    322.6900               327.4588               335.9492
 Red. masses --      1.9604                 1.2651                 1.6246
 Frc consts  --      0.1203                 0.0799                 0.1080
 IR Inten    --      1.8926                 0.4173                 0.4738

                     22                     23                     24
                      A                      A                      A
 Frequencies --    349.6882               358.3818               378.4421
 Red. masses --      2.0138                 2.1000                 1.3029
 Frc consts  --      0.1451                 0.1589                 0.1099
 IR Inten    --      2.2863                 1.5189                 1.1586

                     25                     26                     27
                      A                      A                      A
 Frequencies --    390.0558               392.7285               400.6536
 Red. masses --      1.5251                 3.2824                 1.7242
 Frc consts  --      0.1367                 0.2983                 0.1631
 IR Inten    --      0.2029                 6.7218                 0.6130

                     28                     29                     30
                      A                      A                      A
 Frequencies --    422.4965               437.9052               441.1335
 Red. masses --      3.2230                 3.0494                 2.1308
 Frc consts  --      0.3390                 0.3445                 0.2443
 IR Inten    --      4.1111                 7.6574                 0.3016

                     31                     32                     33
                      A                      A                      A
 Frequencies --    451.6690               477.5330               538.2463
 Red. masses --      2.6625                 3.6994                 2.5111
 Frc consts  --      0.3200                 0.4970                 0.4286
 IR Inten    --      4.5668                 3.4924                 2.2300

                     34                     35                     36
                      A                      A                      A
 Frequencies --    572.4921               605.9237               692.0061
 Red. masses --      2.9454                 2.9139                 3.4172
 Frc consts  --      0.5688                 0.6303                 0.9641
 IR Inten    --      4.5799                 5.8653                 6.0014

                     37                     38                     39
                      A                      A                      A
 Frequencies --    717.8826               802.9402               809.0046
 Red. masses --      5.5201                 3.2513                 1.8973
 Frc consts  --      1.6761                 1.2350                 0.7316
 IR Inten    --     40.8866                 1.6791                 9.4474

                     40                     41                     42
                      A                      A                      A
 Frequencies --    820.3321               861.4766               894.6812
 Red. masses --      1.7430                 2.7943                 2.9387
 Frc consts  --      0.6911                 1.2218                 1.3859
 IR Inten    --      6.9751                 2.1158                 4.4780

                     43                     44                     45
                      A                      A                      A
 Frequencies --    909.7490               935.9371               941.0790
 Red. masses --      2.2977                 1.6164                 1.6313
 Frc consts  --      1.1204                 0.8343                 0.8512
 IR Inten    --      3.3155                 0.4403                 0.9620

                     46                     47                     48
                      A                      A                      A
 Frequencies --    945.8368               951.2486               955.5880
 Red. masses --      1.7776                 1.6628                 1.8451
 Frc consts  --      0.9370                 0.8865                 0.9927
 IR Inten    --      1.0615                 3.1216                 2.7270

                     49                     50                     51
                      A                      A                      A
 Frequencies --    970.5210               975.0120               998.5613
 Red. masses --      1.2483                 1.2164                 2.3554
 Frc consts  --      0.6928                 0.6813                 1.3838
 IR Inten    --      0.2718                 0.1680                 3.2501

                     52                     53                     54
                      A                      A                      A
 Frequencies --   1031.7295              1051.9798              1058.0504
 Red. masses --      2.1383                 1.3773                 1.4064
 Frc consts  --      1.3410                 0.8980                 0.9276
 IR Inten    --      5.7907                 0.4099                 1.5664

                     55                     56                     57
                      A                      A                      A
 Frequencies --   1069.8103              1070.9036              1084.9315
 Red. masses --      1.7128                 1.5561                 2.8232
 Frc consts  --      1.1549                 1.0515                 1.9580
 IR Inten    --      8.6108                 3.3501                27.1297

                     58                     59                     60
                      A                      A                      A
 Frequencies --   1090.0393              1138.0855              1153.6008
 Red. masses --      2.4109                 3.1272                 2.4385
 Frc consts  --      1.6878                 2.3864                 1.9120
 IR Inten    --     22.3378                45.2928                 9.1777

                     61                     62                     63
                      A                      A                      A
 Frequencies --   1180.8434              1185.6172              1238.3039
 Red. masses --      2.6889                 1.6020                 2.4737
 Frc consts  --      2.2091                 1.3268                 2.2349
 IR Inten    --     93.8229                12.0417                42.3594

                     64                     65                     66
                      A                      A                      A
 Frequencies --   1242.0817              1252.9612              1257.9903
 Red. masses --      2.6144                 2.5745                 2.9913
 Frc consts  --      2.3764                 2.3813                 2.7891
 IR Inten    --      1.8052                77.1294               242.3552

                     67                     68                     69
                      A                      A                      A
 Frequencies --   1269.3640              1273.2440              1293.8111
 Red. masses --      2.8204                 3.0053                 3.0969
 Frc consts  --      2.6775                 2.8705                 3.0543
 IR Inten    --     41.8243                21.8892                14.8587

                     70                     71                     72
                      A                      A                      A
 Frequencies --   1309.2569              1376.0624              1392.5102
 Red. masses --      1.0896                 1.1840                 1.2759
 Frc consts  --      1.1005                 1.3209                 1.4576
 IR Inten    --      1.1930                 2.3440                14.0043

                     73                     74                     75
                      A                      A                      A
 Frequencies --   1393.5710              1396.3754              1400.2031
 Red. masses --      1.2809                 1.2561                 1.2670
 Frc consts  --      1.4656                 1.4431                 1.4636
 IR Inten    --      2.0265                25.1100                 3.4278

                     76                     77                     78
                      A                      A                      A
 Frequencies --   1404.6795              1409.8299              1418.7273
 Red. masses --      1.2715                 1.2991                 1.5208
 Frc consts  --      1.4781                 1.5213                 1.8035
 IR Inten    --     15.7733                33.4764                54.3041

                     79                     80                     81
                      A                      A                      A
 Frequencies --   1424.5878              1435.3380              1444.3921
 Red. masses --      1.2333                 1.2312                 1.6574
 Frc consts  --      1.4747                 1.4944                 2.0373
 IR Inten    --     24.1535                 6.9707                 4.9651

                     82                     83                     84
                      A                      A                      A
 Frequencies --   1477.6925              1482.8588              1486.9772
 Red. masses --      1.0523                 1.0484                 1.0554
 Frc consts  --      1.3538                 1.3582                 1.3749
 IR Inten    --      1.8171                 1.8208                 2.3161

                     85                     86                     87
                      A                      A                      A
 Frequencies --   1487.7225              1488.2284              1491.3753
 Red. masses --      1.0553                 1.0395                 1.0491
 Frc consts  --      1.3761                 1.3565                 1.3748
 IR Inten    --      3.7156                 5.9289                 1.1842

                     88                     89                     90
                      A                      A                      A
 Frequencies --   1494.9559              1497.6105              1500.0673
 Red. masses --      1.0723                 1.0625                 1.0496
 Frc consts  --      1.4120                 1.4040                 1.3915
 IR Inten    --      9.4411                 3.0744                 1.9522

                     91                     92                     93
                      A                      A                      A
 Frequencies --   1503.9016              1505.6911              1512.4814
 Red. masses --      1.0564                 1.0529                 1.0560
 Frc consts  --      1.4078                 1.4064                 1.4232
 IR Inten    --      3.2767                 2.5610                 2.1888

                     94                     95                     96
                      A                      A                      A
 Frequencies --   1518.4687              1522.4133              1523.0937
 Red. masses --      1.0551                 1.0689                 1.0818
 Frc consts  --      1.4334                 1.4597                 1.4786
 IR Inten    --      2.5199                 6.3694                 4.5651

                     97                     98                     99
                      A                      A                      A
 Frequencies --   1536.3851              1537.8522              1845.4374
 Red. masses --      1.0563                 1.0566                11.5980
 Frc consts  --      1.4690                 1.4723                23.2719
 IR Inten    --     17.7198                 7.3075               209.0687

                    100                    101                    102
                      A                      A                      A
 Frequencies --   3068.3897              3071.0315              3073.1381
 Red. masses --      1.0379                 1.0390                 1.0393
 Frc consts  --      5.7573                 5.7732                 5.7828
 IR Inten    --     10.5318                16.4472                10.6909

                    103                    104                    105
                      A                      A                      A
 Frequencies --   3074.7279              3074.8657              3078.1598
 Red. masses --      1.0358                 1.0392                 1.0359
 Frc consts  --      5.7694                 5.7889                 5.7830
 IR Inten    --     11.3936                 8.4963                 9.0246

                    106                    107                    108
                      A                      A                      A
 Frequencies --   3078.8111              3083.3803              3084.0122
 Red. masses --      1.0416                 1.0472                 1.0540
 Frc consts  --      5.8174                 5.8660                 5.9063
 IR Inten    --     27.1160                38.4993                14.7721

                    109                    110                    111
                      A                      A                      A
 Frequencies --   3085.9246              3123.2078              3135.1755
 Red. masses --      1.0749                 1.1073                 1.1019
 Frc consts  --      6.0309                 6.3638                 6.3815
 IR Inten    --     23.5051                 4.4838                13.3818

                    112                    113                    114
                      A                      A                      A
 Frequencies --   3136.2993              3139.1602              3140.2193
 Red. masses --      1.1004                 1.0998                 1.0993
 Frc consts  --      6.3772                 6.3854                 6.3866
 IR Inten    --     15.5110                18.1009                 7.8463

                    115                    116                    117
                      A                      A                      A
 Frequencies --   3146.1113              3150.9811              3152.9693
 Red. masses --      1.1004                 1.0995                 1.1024
 Frc consts  --      6.4173                 6.4317                 6.4571
 IR Inten    --     29.3070                31.4605                19.8770

                    118                    119                    120
                      A                      A                      A
 Frequencies --   3154.4280              3156.7263              3163.2594
 Red. masses --      1.1023                 1.1042                 1.1021
 Frc consts  --      6.4623                 6.4831                 6.4975
 IR Inten    --     11.4303                19.8345                25.2077

                    121                    122                    123
                      A                      A                      A
 Frequencies --   3169.8123              3174.4813              3174.9854
 Red. masses --      1.1033                 1.1020                 1.0996
 Frc consts  --      6.5316                 6.5430                 6.5308
 IR Inten    --      7.0326                 6.8023                 2.4587

                    124                    125                    126
                      A                      A                      A
 Frequencies --   3182.2784              3187.5839              3198.3713
 Red. masses --      1.0977                 1.0963                 1.0996
 Frc consts  --      6.5495                 6.5629                 6.6277
 IR Inten    --      3.5421                33.9017                 0.7686

 - Thermochemistry -
 -------------------
 Temperature   298.150 Kelvin.  Pressure   1.00000 Atm.
 Atom     1 has atomic number  6 and mass  12.00000

 Molecular mass:   245.19909 amu.
 Principal axes and moments of inertia in atomic units:
                           1         2         3
     Eigenvalues --  3145.598584730.120535312.77066
           X            0.99975  -0.02189   0.00395
           Y            0.02184   0.99969   0.01217
           Z           -0.00421  -0.01208   0.99992
 This molecule is an asymmetric top.
 Rotational symmetry number  1.
 Warning -- assumption of classical behavior for rotation
           may cause significant error
 Rotational temperatures (Kelvin)      0.02753     0.01831     0.01630
 Rotational constants (GHZ):           0.57374     0.38154     0.33970
 Zero-point vibrational energy    1042443.8 (Joules/Mol)
                                  249.15004 (Kcal/Mol)
 Warning -- explicit consideration of  35 degrees of freedom as
           vibrations may cause significant error
 Vibrational temperatures:     40.57    75.71    93.83   131.97   172.30
          (Kelvin)            180.40   206.07   236.04   246.36   293.51
                              316.97   324.96   345.89   379.65   398.32
                              406.54   423.64   442.30   464.28   471.14
                              483.36   503.12   515.63   544.49   561.20
                              565.05   576.45   607.88   630.05   634.69
                              649.85   687.06   774.42   823.69   871.79
                              995.64  1032.87  1155.25  1163.98  1180.27
                             1239.47  1287.25  1308.93  1346.60  1354.00
                             1360.85  1368.63  1374.88  1396.36  1402.82
                             1436.71  1484.43  1513.56  1522.30  1539.22
                             1540.79  1560.97  1568.32  1637.45  1659.77
                             1698.97  1705.84  1781.64  1787.08  1802.73
                             1809.97  1826.33  1831.91  1861.51  1883.73
                             1979.85  2003.51  2005.04  2009.07  2014.58
                             2021.02  2028.43  2041.23  2049.66  2065.13
                             2078.16  2126.07  2133.50  2139.43  2140.50
                             2141.23  2145.76  2150.91  2154.73  2158.26
                             2163.78  2166.35  2176.12  2184.74  2190.41
                             2191.39  2210.52  2212.63  2655.17  4414.73
                             4418.53  4421.56  4423.85  4424.05  4428.79
                             4429.72  4436.30  4437.21  4439.96  4493.60
                             4510.82  4512.44  4516.55  4518.08  4526.55
                             4533.56  4536.42  4538.52  4541.83  4551.22
                             4560.65  4567.37  4568.10  4578.59  4586.22
                             4601.74

 Zero-point correction=                           0.397046 (Hartree/Particle)
 Thermal correction to Energy=                    0.417232
 Thermal correction to Enthalpy=                  0.418176
 Thermal correction to Gibbs Free Energy=         0.350555
 Sum of electronic and zero-point Energies=           -791.566318
 Sum of electronic and thermal Energies=              -791.546132
 Sum of electronic and thermal Enthalpies=            -791.545188
 Sum of electronic and thermal Free Energies=         -791.612810

                     E (Thermal)             CV                S
                      KCal/Mol        Cal/Mol-Kelvin    Cal/Mol-Kelvin
 Total                  261.817             78.506            142.321
 Electronic               0.000              0.000              0.000
 Translational            0.889              2.981             42.391
 Rotational               0.889              2.981             32.736
 Vibrational            260.040             72.544             67.194
 Vibration     1          0.593              1.984              5.952
 Vibration     2          0.596              1.977              4.716
 Vibration     3          0.597              1.971              4.293
 Vibration     4          0.602              1.955              3.623
 Vibration     5          0.609              1.933              3.104
 Vibration     6          0.610              1.928              3.016
 Vibration     7          0.616              1.910              2.760
 Vibration     8          0.623              1.887              2.503
 Vibration     9          0.626              1.878              2.422
 Vibration    10          0.640              1.834              2.097
 Vibration    11          0.647              1.810              1.957
 Vibration    12          0.650              1.802              1.912
 Vibration    13          0.657              1.779              1.800
 Vibration    14          0.670              1.739              1.636
 Vibration    15          0.678              1.716              1.553
 Vibration    16          0.682              1.706              1.518
 Vibration    17          0.689              1.684              1.448
 Vibration    18          0.697              1.660              1.376
 Vibration    19          0.708              1.630              1.296
 Vibration    20          0.711              1.621              1.273
 Vibration    21          0.717              1.604              1.231
 Vibration    22          0.727              1.576              1.168
 Vibration    23          0.733              1.558              1.129
 Vibration    24          0.749              1.516              1.045
 Vibration    25          0.758              1.491              1.000
 Vibration    26          0.760              1.486              0.990
 Vibration    27          0.766              1.469              0.960
 Vibration    28          0.785              1.421              0.884
 Vibration    29          0.798              1.388              0.833
 Vibration    30          0.801              1.380              0.823
 Vibration    31          0.810              1.357              0.791
 Vibration    32          0.834              1.300              0.717
 Vibration    33          0.893              1.165              0.569
 Vibration    34          0.929              1.091              0.499
 Vibration    35          0.965              1.019              0.440

 Optimization completed.
    -- Stationary point found.
 Normal termination of Gaussian 16 at Tue Jan  7 23:59:12 2025.
