 Gaussian 16, Revision C.01,
 Gaussian 16:  ES64L-G16RevC.01  3-Jul-2019

 ----------------------------------
 #p M062X/DEF2TZVP opt freq pop=NBO
 ----------------------------------

 --------------------------
 data_set_12-nBA_dormant-28
 --------------------------
 Symbolic Z-matrix:
 Charge =  0 Multiplicity = 1

 SCF Done:  E(RM062X) =  -905.294444892     A.U. after   14 cycles
 SCF Done:  E(RM062X) =  -905.302784180     A.U. after   12 cycles
 SCF Done:  E(RM062X) =  -905.300452770     A.U. after   13 cycles
 SCF Done:  E(RM062X) =  -905.294009365     A.U. after   13 cycles
 SCF Done:  E(RM062X) =  -905.295068865     A.U. after   13 cycles
 SCF Done:  E(RM062X) =  -905.303202939     A.U. after    9 cycles
 SCF Done:  E(RM062X) =  -905.303700668     A.U. after   12 cycles
 SCF Done:  E(RM062X) =  -905.303658520     A.U. after   13 cycles
 SCF Done:  E(RM062X) =  -905.303972624     A.U. after   11 cycles
 SCF Done:  E(RM062X) =  -905.303927008     A.U. after   12 cycles
 SCF Done:  E(RM062X) =  -905.304224065     A.U. after   12 cycles
 SCF Done:  E(RM062X) =  -905.304230416     A.U. after   11 cycles
 SCF Done:  E(RM062X) =  -905.304236443     A.U. after   11 cycles
 SCF Done:  E(RM062X) =  -905.304238776     A.U. after   10 cycles
 SCF Done:  E(RM062X) =  -905.304240307     A.U. after   10 cycles
 SCF Done:  E(RM062X) =  -905.304241206     A.U. after   10 cycles
 SCF Done:  E(RM062X) =  -905.304241411     A.U. after    7 cycles
 SCF Done:  E(RM062X) =  -905.304241323     A.U. after    9 cycles
 SCF Done:  E(RM062X) =  -905.304241280     A.U. after    7 cycles
 Optimization completed.
    -- Stationary point found.
 Normal termination of Gaussian 16 at Tue Jan  7 23:23:08 2025.

 --------------------------------------------------------------------
 #P Geom=AllCheck Guess=TCheck SCRF=Check GenChk RM062X/def2TZVP Freq
 --------------------------------------------------------------------

 Structure from the checkpoint file:  "outputs/data_set_12-nBA_dormant-28.chk"
 --------------------------
 data_set_12-nBA_dormant-28
 --------------------------
 Charge =  0 Multiplicity = 1

                         Standard orientation:
 ---------------------------------------------------------------------
 Center     Atomic      Atomic             Coordinates (Angstroms)
 Number     Number       Type             X           Y           Z
 ---------------------------------------------------------------------
      1          6           0       -1.247044    2.492271    1.041313
      2          6           0       -1.437109    1.020973    0.752140
      3          6           0       -2.823383    0.744234    0.175763
      4          8           0       -3.680731    1.572889    0.044561
      5          8           0       -2.981167   -0.543442   -0.130776
      6          6           0       -4.255976   -0.906492   -0.677501
      7          6           0       -4.212648   -2.384970   -0.976061
      8          8           0       -0.521445    0.479208   -0.186185
      9          7           0        0.792531    0.433288    0.340179
     10          6           0        1.095869   -0.912447    0.950640
     11          6           0        2.335198   -1.586187    0.340638
     12          6           0        3.536132   -0.675736    0.110707
     13          6           0        3.113306    0.771294   -0.144493
     14          6           0        1.704409    0.938344   -0.711761
     15          6           0        1.440908    2.432950   -0.891296
     16          6           0        1.530516    0.265299   -2.081089
     17          6           0       -0.061274   -1.896272    0.778931
     18          6           0        1.345330   -0.663589    2.442923
     19          8           0        4.236097   -1.238015   -0.994614
     20          1           0       -1.992182    2.818963    1.765640
     21          1           0       -1.374099    3.083736    0.136177
     22          1           0       -0.252624    2.653038    1.451569
     23          1           0       -1.372918    0.452370    1.687511
     24          1           0       -4.433040   -0.310907   -1.573964
     25          1           0       -5.032470   -0.654667    0.046373
     26          1           0       -3.424134   -2.607655   -1.694269
     27          1           0       -5.165930   -2.706513   -1.395271
     28          1           0       -4.023476   -2.955502   -0.067085
     29          1           0        2.075933   -2.034739   -0.616630
     30          1           0        2.620846   -2.414172    0.992024
     31          1           0        4.189219   -0.695046    0.990265
     32          1           0        3.827261    1.240127   -0.827072
     33          1           0        3.154671    1.330950    0.794123
     34          1           0        1.551851    2.961950    0.055206
     35          1           0        0.436723    2.604210   -1.275665
     36          1           0        2.153751    2.845922   -1.606985
     37          1           0        1.794422   -0.787483   -2.084858
     38          1           0        2.176254    0.761556   -2.807845
     39          1           0        0.498030    0.373260   -2.411690
     40          1           0        0.251831   -2.862597    1.178230
     41          1           0       -0.320728   -2.015807   -0.271958
     42          1           0       -0.960173   -1.589143    1.309685
     43          1           0        2.204504   -0.006256    2.588243
     44          1           0        1.536777   -1.604183    2.964000
     45          1           0        0.480752   -0.181728    2.900383
     46          1           0        5.043789   -0.735864   -1.136398
 ---------------------------------------------------------------------

 SCF Done:  E(RM062X) =  -905.304241280     A.U. after    1 cycles

 The electronic state is 1-A.
 Alpha  occ. eigenvalues --  -19.66987 -19.65465 -19.62471 -19.61680 -14.78270
 Alpha  occ. eigenvalues --  -10.66823 -10.60006 -10.59431 -10.58888 -10.57646
 Alpha  occ. eigenvalues --  -10.57282 -10.53344 -10.53312 -10.52851 -10.52241
 Alpha  occ. eigenvalues --  -10.52035 -10.51908 -10.51626 -10.51125  -1.24162
 Alpha  occ. eigenvalues --   -1.19946  -1.14816  -1.14537  -0.99617  -0.91349
 Alpha  occ. eigenvalues --   -0.89674  -0.87174  -0.84527  -0.81394  -0.78775
 Alpha  occ. eigenvalues --   -0.77614  -0.77141  -0.75984  -0.70681  -0.68579
 Alpha  occ. eigenvalues --   -0.66422  -0.65105  -0.61487  -0.60773  -0.59439
 Alpha  occ. eigenvalues --   -0.57619  -0.56699  -0.56320  -0.54741  -0.54587
 Alpha  occ. eigenvalues --   -0.52146  -0.50941  -0.50004  -0.49550  -0.49135
 Alpha  occ. eigenvalues --   -0.48830  -0.48175  -0.46906  -0.46581  -0.46228
 Alpha  occ. eigenvalues --   -0.45920  -0.44987  -0.44091  -0.43655  -0.43168
 Alpha  occ. eigenvalues --   -0.43001  -0.42801  -0.42456  -0.41943  -0.41667
 Alpha  occ. eigenvalues --   -0.40887  -0.40290  -0.39108  -0.38584  -0.37509
 Alpha  occ. eigenvalues --   -0.36891  -0.35182  -0.34633  -0.33507  -0.27818
 Alpha virt. eigenvalues --    0.03869   0.05193   0.06311   0.07294   0.08238
 Alpha virt. eigenvalues --    0.08666   0.09135   0.10078   0.10615   0.10883
 Alpha virt. eigenvalues --    0.11527   0.12321   0.12984   0.13286   0.13743

 Mulliken charges:
               1
     1  C   -0.434099
     2  C   -0.056261
     3  C    0.377893
     4  O   -0.329007
     5  O   -0.246373
     6  C   -0.101444
     7  C   -0.414331
     8  O   -0.269595
     9  N   -0.012833
    10  C   -0.039129
    11  C   -0.363568
    12  C    0.046828
    13  C   -0.391100
    14  C    0.106146
    15  C   -0.505088
    16  C   -0.433759
    17  C   -0.408501
    18  C   -0.386802
    19  O   -0.457185
    20  H    0.161337
    21  H    0.160806
    22  H    0.157609
    23  H    0.150362
    24  H    0.141954
    25  H    0.139978
    26  H    0.148032
    27  H    0.142009
    28  H    0.144232
    29  H    0.195572
    30  H    0.167362
    31  H    0.143864
    32  H    0.157021
    33  H    0.169661
    34  H    0.156849
    35  H    0.169619
    36  H    0.150373
    37  H    0.150252
    38  H    0.140787
    39  H    0.169721
    40  H    0.148498
    41  H    0.173708
    42  H    0.145323
    43  H    0.144873
    44  H    0.144206
    45  H    0.138618
    46  H    0.305581
 Sum of Mulliken charges =  -0.00000

 Dipole moment (field-independent basis, Debye):
    X=              1.5217    Y=             -0.9481    Z=              0.8859  Tot=              1.9998
 Quadrupole moment (field-independent basis, Debye-Ang):
   XX=           -110.4907   YY=           -122.3206   ZZ=           -117.0357
   XY=             14.8563   XZ=              2.3247   YZ=             -1.6511

  Exact polarizability:     202.247      -0.894     181.626      -0.823      -0.946     161.595
 Approx polarizability:     220.248      -4.347     216.549       0.234      -0.154     207.736

 Summary of Natural Population Analysis:

                                       Natural Population
                Natural  -----------------------------------------------
    Atom  No    Charge         Core      Valence    Rydberg      Total
 -----------------------------------------------------------------------
      C    1   -0.62712      1.99946     4.61457    0.01309     6.62712
      C    2    0.01552      1.99913     3.96129    0.02406     5.98448
      C    3    0.78550      1.99945     3.18118    0.03388     5.21450
      O    4   -0.58901      1.99975     6.56012    0.02914     8.58901
      O    5   -0.49468      1.99972     6.47021    0.02476     8.49468
      C    6   -0.07108      1.99930     4.05509    0.01668     6.07108
      C    7   -0.61678      1.99950     4.60635    0.01092     6.61678
      O    8   -0.39868      1.99978     6.38154    0.01736     8.39868
      N    9   -0.20065      1.99934     5.16618    0.03513     7.20065
      C   10    0.11855      1.99934     3.86453    0.01757     5.88145
      C   11   -0.42799      1.99931     4.41061    0.01806     6.42799
      C   12    0.09529      1.99922     3.88705    0.01844     5.90471
      C   13   -0.43071      1.99931     4.41462    0.01677     6.43071
      C   14    0.12618      1.99937     3.85461    0.01985     5.87382
      C   15   -0.59807      1.99941     4.58569    0.01297     6.59807
      C   16   -0.63650      1.99939     4.62327    0.01384     6.63650
      C   17   -0.60286      1.99939     4.58933    0.01414     6.60286
      C   18   -0.59925      1.99940     4.58620    0.01365     6.59925
      O   19   -0.71256      1.99983     6.70092    0.01181     8.71256
      H   20    0.22420      0.00000     0.77505    0.00075     0.77580
      H   21    0.21801      0.00000     0.78086    0.00113     0.78199
      H   22    0.22145      0.00000     0.77724    0.00132     0.77855
      H   23    0.18123      0.00000     0.81545    0.00332     0.81877
      H   24    0.18474      0.00000     0.81366    0.00160     0.81526
      H   25    0.18211      0.00000     0.81629    0.00160     0.81789
      H   26    0.21323      0.00000     0.78575    0.00103     0.78677
      H   27    0.21410      0.00000     0.78528    0.00063     0.78590
      H   28    0.21097      0.00000     0.78804    0.00098     0.78903
      H   29    0.22373      0.00000     0.77469    0.00157     0.77627
      H   30    0.21705      0.00000     0.78183    0.00112     0.78295
      H   31    0.16035      0.00000     0.83804    0.00161     0.83965
      H   32    0.21341      0.00000     0.78512    0.00147     0.78659
      H   33    0.21476      0.00000     0.78372    0.00151     0.78524
      H   34    0.20731      0.00000     0.79142    0.00128     0.79269
      H   35    0.21757      0.00000     0.78116    0.00127     0.78243
      H   36    0.20498      0.00000     0.79412    0.00090     0.79502
      H   37    0.21469      0.00000     0.78413    0.00118     0.78531
      H   38    0.20840      0.00000     0.79073    0.00087     0.79160
      H   39    0.22228      0.00000     0.77654    0.00117     0.77772
      H   40    0.20669      0.00000     0.79241    0.00090     0.79331
      H   41    0.22378      0.00000     0.77507    0.00114     0.77622
      H   42    0.20972      0.00000     0.78908    0.00120     0.79028
      H   43    0.20407      0.00000     0.79465    0.00127     0.79593
      H   44    0.20097      0.00000     0.79797    0.00106     0.79903
      H   45    0.20527      0.00000     0.79368    0.00105     0.79473
      H   46    0.45984      0.00000     0.53627    0.00390     0.54016
 =======================================================================
   * Total *    0.00000     37.98939   111.61163    0.39898   150.00000

                      1                      2                      3
                      A                      A                      A
 Frequencies --     10.6209                20.4125                44.3942
 Red. masses --      4.2303                 3.6149                 4.0555
 Frc consts  --      0.0003                 0.0009                 0.0047
 IR Inten    --      1.5825                 0.4061                 0.0349

                      4                      5                      6
                      A                      A                      A
 Frequencies --     68.7251                84.2268                87.8389
 Red. masses --      4.0063                 2.7559                 2.2411
 Frc consts  --      0.0111                 0.0115                 0.0102
 IR Inten    --      0.0648                 0.7902                 0.1957

                      7                      8                      9
                      A                      A                      A
 Frequencies --    122.9900               135.9619               145.6101
 Red. masses --      3.3707                 1.9235                 1.9208
 Frc consts  --      0.0300                 0.0209                 0.0240
 IR Inten    --      0.5956                 1.6119                 0.3786

                     10                     11                     12
                      A                      A                      A
 Frequencies --    152.4965               192.0888               216.1867
 Red. masses --      2.1887                 2.8219                 4.2646
 Frc consts  --      0.0300                 0.0613                 0.1174
 IR Inten    --      0.6124                 1.1384                 1.4231

                     13                     14                     15
                      A                      A                      A
 Frequencies --    245.9190               247.5164               252.6756
 Red. masses --      1.0386                 1.3213                 1.7130
 Frc consts  --      0.0370                 0.0477                 0.0644
 IR Inten    --      0.2011                 0.6226                 0.4851

                     16                     17                     18
                      A                      A                      A
 Frequencies --    260.3033               270.9798               287.3177
 Red. masses --      1.3285                 1.8155                 1.3825
 Frc consts  --      0.0530                 0.0785                 0.0672
 IR Inten    --      2.0423                38.7962                80.9103

                     19                     20                     21
                      A                      A                      A
 Frequencies --    310.8947               319.2238               321.4052
 Red. masses --      2.7686                 1.3608                 2.3218
 Frc consts  --      0.1577                 0.0817                 0.1413
 IR Inten    --      1.1876                 1.9780                 3.0970

                     22                     23                     24
                      A                      A                      A
 Frequencies --    326.0407               336.6697               348.2687
 Red. masses --      2.4509                 1.4593                 1.9170
 Frc consts  --      0.1535                 0.0975                 0.1370
 IR Inten    --      1.7515                 3.7166                 2.5297

                     25                     26                     27
                      A                      A                      A
 Frequencies --    368.2190               370.7256               375.0169
 Red. masses --      3.0578                 2.3241                 3.5169
 Frc consts  --      0.2443                 0.1882                 0.2914
 IR Inten    --      3.7782                 1.6051                 7.8203

                     28                     29                     30
                      A                      A                      A
 Frequencies --    401.4081               420.7151               443.0593
 Red. masses --      2.4216                 3.1031                 2.8169
 Frc consts  --      0.2299                 0.3236                 0.3258
 IR Inten    --      0.2306                 0.4263                 0.5788

                     31                     32                     33
                      A                      A                      A
 Frequencies --    457.0136               482.5418               508.2063
 Red. masses --      3.4060                 3.6026                 3.0410
 Frc consts  --      0.4191                 0.4942                 0.4627
 IR Inten    --      7.2505                 3.5443                 8.0615

                     34                     35                     36
                      A                      A                      A
 Frequencies --    535.5565               559.4946               581.2039
 Red. masses --      3.0161                 3.0572                 3.2834
 Frc consts  --      0.5097                 0.5638                 0.6535
 IR Inten    --      4.3830                 6.2979                 8.4430

                     37                     38                     39
                      A                      A                      A
 Frequencies --    641.7110               676.0528               724.8835
 Red. masses --      3.0346                 3.3818                 4.5329
 Frc consts  --      0.7363                 0.9107                 1.4033
 IR Inten    --      5.4419                 5.1563                 3.9996

                     40                     41                     42
                      A                      A                      A
 Frequencies --    803.6920               810.4402               819.5064
 Red. masses --      2.7116                 1.7625                 1.7119
 Frc consts  --      1.0320                 0.6820                 0.6774
 IR Inten    --      3.7243                10.0096                 7.1012

                     43                     44                     45
                      A                      A                      A
 Frequencies --    860.2660               878.4872               894.2379
 Red. masses --      2.7396                 2.2997                 2.6545
 Frc consts  --      1.1945                 1.0457                 1.2506
 IR Inten    --      1.4986                 2.0061                13.6600

                     46                     47                     48
                      A                      A                      A
 Frequencies --    909.0334               913.6156               947.0803
 Red. masses --      2.1659                 1.9960                 1.7104
 Frc consts  --      1.0545                 0.9816                 0.9039
 IR Inten    --      2.1055                 8.5977                 4.8571

                     49                     50                     51
                      A                      A                      A
 Frequencies --    947.7489               953.0522               955.9535
 Red. masses --      1.5123                 1.6085                 2.4066
 Frc consts  --      0.8003                 0.8608                 1.2958
 IR Inten    --      0.8287                 0.5350                 4.1380

                     52                     53                     54
                      A                      A                      A
 Frequencies --    984.8310              1005.9097              1018.7703
 Red. masses --      1.7022                 1.7124                 1.3723
 Frc consts  --      0.9727                 1.0209                 0.8392
 IR Inten    --      1.1898                 2.5809                 1.0920

                     55                     56                     57
                      A                      A                      A
 Frequencies --   1038.6080              1063.1779              1076.1298
 Red. masses --      1.4898                 2.3520                 2.8596
 Frc consts  --      0.9468                 1.5664                 1.9511
 IR Inten    --      3.6682                 8.8961                 5.4050

                     58                     59                     60
                      A                      A                      A
 Frequencies --   1080.9620              1089.5696              1097.5805
 Red. masses --      2.6153                 2.4832                 2.1925
 Frc consts  --      1.8005                 1.7369                 1.5562
 IR Inten    --     28.5916                26.7704                52.1484

                     61                     62                     63
                      A                      A                      A
 Frequencies --   1119.6656              1149.1586              1150.1443
 Red. masses --      1.7540                 2.3046                 1.8525
 Frc consts  --      1.2956                 1.7931                 1.4439
 IR Inten    --      8.9340                40.2519                26.1943

                     64                     65                     66
                      A                      A                      A
 Frequencies --   1155.2466              1179.8795              1186.4242
 Red. masses --      1.9118                 3.5706                 1.5804
 Frc consts  --      1.5033                 2.9286                 1.3107
 IR Inten    --     54.9531                63.5178                 4.1913

                     67                     68                     69
                      A                      A                      A
 Frequencies --   1195.0401              1210.1007              1226.6614
 Red. masses --      2.2064                 2.2441                 2.7010
 Frc consts  --      1.8566                 1.9362                 2.3945
 IR Inten    --     41.9076                 1.9323                 8.2845

                     70                     71                     72
                      A                      A                      A
 Frequencies --   1257.2604              1262.7984              1270.9391
 Red. masses --      2.3871                 1.6781                 2.6784
 Frc consts  --      2.2232                 1.5766                 2.5491
 IR Inten    --     16.9824                66.3325               333.2159

                     73                     74                     75
                      A                      A                      A
 Frequencies --   1287.2498              1309.2857              1312.0044
 Red. masses --      2.3893                 1.0894                 1.5224
 Frc consts  --      2.3327                 1.1003                 1.5440
 IR Inten    --      4.4579                 1.9054                29.0709

                     76                     77                     78
                      A                      A                      A
 Frequencies --   1322.1675              1353.7662              1373.4662
 Red. masses --      1.7692                 1.5542                 1.2370
 Frc consts  --      1.8222                 1.6782                 1.3748
 IR Inten    --     14.5428                10.1158                 8.9475

                     79                     80                     81
                      A                      A                      A
 Frequencies --   1379.3999              1385.5154              1396.1705
 Red. masses --      1.6795                 1.4880                 1.3613
 Frc consts  --      1.8828                 1.6829                 1.5635
 IR Inten    --     28.0513                54.3711                 3.0166

                     82                     83                     84
                      A                      A                      A
 Frequencies --   1400.3000              1403.1373              1405.0945
 Red. masses --      1.3425                 1.2736                 1.3157
 Frc consts  --      1.5510                 1.4774                 1.5305
 IR Inten    --     22.0729                11.1724                58.5514

                     85                     86                     87
                      A                      A                      A
 Frequencies --   1413.5519              1417.9318              1427.2020
 Red. masses --      1.5556                 1.2501                 1.2516
 Frc consts  --      1.8314                 1.4808                 1.5021
 IR Inten    --     12.2037                12.4556                18.8214

                     88                     89                     90
                      A                      A                      A
 Frequencies --   1438.6944              1441.2810              1464.7918
 Red. masses --      1.5250                 1.6537                 1.0802
 Frc consts  --      1.8598                 2.0240                 1.3656
 IR Inten    --      5.6276                 2.9585                 2.7451

                     91                     92                     93
                      A                      A                      A
 Frequencies --   1478.4270              1479.3551              1482.6125
 Red. masses --      1.0536                 1.0625                 1.0782
 Frc consts  --      1.3568                 1.3700                 1.3963
 IR Inten    --      1.1989                 2.4036                 3.9778

                     94                     95                     96
                      A                      A                      A
 Frequencies --   1486.0555              1487.8754              1489.2038
 Red. masses --      1.0873                 1.0383                 1.0654
 Frc consts  --      1.4147                 1.3543                 1.3920
 IR Inten    --      4.6341                 8.3311                 4.5972

                     97                     98                     99
                      A                      A                      A
 Frequencies --   1496.5669              1500.7740              1501.5233
 Red. masses --      1.0528                 1.0533                 1.0642
 Frc consts  --      1.3893                 1.3978                 1.4136
 IR Inten    --      1.6954                10.4247                11.3810

                    100                    101                    102
                      A                      A                      A
 Frequencies --   1502.8341              1507.0180              1519.6904
 Red. masses --      1.0569                 1.0545                 1.0612
 Frc consts  --      1.4063                 1.4110                 1.4440
 IR Inten    --      7.2754                 6.6880                 5.6047

                    103                    104                    105
                      A                      A                      A
 Frequencies --   1522.7528              1526.1391              1849.1308
 Red. masses --      1.0790                 1.0918                12.3365
 Frc consts  --      1.4741                 1.4983                24.8530
 IR Inten    --      7.3269                 5.2788               282.4061

                    106                    107                    108
                      A                      A                      A
 Frequencies --   3029.8179              3047.9532              3056.7678
 Red. masses --      1.0835                 1.0787                 1.0433
 Frc consts  --      5.8601                 5.9042                 5.7433
 IR Inten    --     28.4140                10.6064                11.1260

                    109                    110                    111
                      A                      A                      A
 Frequencies --   3058.8502              3069.4292              3075.5559
 Red. masses --      1.0555                 1.0369                 1.0399
 Frc consts  --      5.8189                 5.7557                 5.7953
 IR Inten    --     34.4864                18.3654                 9.4340

                    112                    113                    114
                      A                      A                      A
 Frequencies --   3076.5528              3079.8459              3084.4828
 Red. masses --      1.0355                 1.0420                 1.0578
 Frc consts  --      5.7747                 5.8232                 5.9297
 IR Inten    --     11.0774                26.2501                16.0362

                    115                    116                    117
                      A                      A                      A
 Frequencies --   3087.6859              3090.1890              3100.8924
 Red. masses --      1.0352                 1.0660                 1.1032
 Frc consts  --      5.8147                 5.9974                 6.2502
 IR Inten    --     11.7823                15.5806                19.0400

                    118                    119                    120
                      A                      A                      A
 Frequencies --   3123.9823              3130.4160              3137.4811
 Red. masses --      1.1075                 1.1017                 1.1009
 Frc consts  --      6.3679                 6.3611                 6.3850
 IR Inten    --      4.4295                19.8366                11.4474

                    121                    122                    123
                      A                      A                      A
 Frequencies --   3138.9814              3141.2648              3146.6090
 Red. masses --      1.1006                 1.1000                 1.0992
 Frc consts  --      6.3896                 6.3950                 6.4122
 IR Inten    --     12.8175                26.8860                14.7924

                    124                    125                    126
                      A                      A                      A
 Frequencies --   3149.1301              3154.6105              3158.4238
 Red. masses --      1.0992                 1.1020                 1.1046
 Frc consts  --      6.4223                 6.4615                 6.4924
 IR Inten    --     34.7773                17.5217                20.2613

                    127                    128                    129
                      A                      A                      A
 Frequencies --   3160.8095              3164.2135              3169.4819
 Red. masses --      1.1025                 1.1012                 1.1016
 Frc consts  --      6.4896                 6.4960                 6.5201
 IR Inten    --     12.6736                 6.6027                19.2993

                    130                    131                    132
                      A                      A                      A
 Frequencies --   3180.9963              3200.8652              3872.1304
 Red. masses --      1.1035                 1.0950                 1.0663
 Frc consts  --      6.5789                 6.6099                 9.4198
 IR Inten    --     11.0022                 9.4551                35.8634

 - Thermochemistry -
 -------------------
 Temperature   298.150 Kelvin.  Pressure   1.00000 Atm.
 Atom     1 has atomic number  6 and mass  12.00000

 Molecular mass:   273.19401 amu.
 Principal axes and moments of inertia in atomic units:
                           1         2         3
     Eigenvalues --  2928.823517789.919838685.41163
           X            0.99973   0.02275   0.00514
           Y           -0.02273   0.99973  -0.00503
           Z           -0.00526   0.00492   0.99997
 This molecule is an asymmetric top.
 Rotational symmetry number  1.
 Warning -- assumption of classical behavior for rotation
           may cause significant error
 Rotational temperatures (Kelvin)      0.02957     0.01112     0.00997
 Rotational constants (GHZ):           0.61620     0.23168     0.20779
 Zero-point vibrational energy    1073737.8 (Joules/Mol)
                                  256.62948 (Kcal/Mol)
 Warning -- explicit consideration of  36 degrees of freedom as
           vibrations may cause significant error
 Vibrational temperatures:     15.28    29.37    63.87    98.88   121.18
          (Kelvin)            126.38   176.96   195.62   209.50   219.41
                              276.37   311.04   353.82   356.12   363.54
                              374.52   389.88   413.39   447.31   459.29
                              462.43   469.10   484.39   501.08   529.79
                              533.39   539.57   577.54   605.32   637.46
                              657.54   694.27   731.20   770.55   804.99
                              836.22   923.28   972.69  1042.95  1156.33
                             1166.04  1179.09  1237.73  1263.95  1286.61
                             1307.90  1314.49  1362.64  1363.60  1371.23
                             1375.40  1416.95  1447.28  1465.78  1494.33
                             1529.68  1548.31  1555.26  1567.65  1579.17
                             1610.95  1653.38  1654.80  1662.14  1697.58
                             1707.00  1719.40  1741.06  1764.89  1808.92
                             1816.89  1828.60  1852.07  1883.77  1887.68
                             1902.30  1947.77  1976.11  1984.65  1993.45
                             2008.78  2014.72  2018.80  2021.62  2033.79
                             2040.09  2053.43  2069.96  2073.68  2107.51
                             2127.13  2128.46  2133.15  2138.10  2140.72
                             2142.63  2153.23  2159.28  2160.36  2162.24
                             2168.26  2186.50  2190.90  2195.77  2660.49
                             4359.23  4385.32  4398.01  4401.00  4416.22
                             4425.04  4426.47  4431.21  4437.88  4442.49
                             4446.09  4461.49  4494.71  4503.97  4514.14
                             4516.29  4519.58  4527.27  4530.90  4538.78
                             4544.27  4547.70  4552.60  4560.18  4576.74
                             4605.33  5571.13

 Zero-point correction=                           0.408965 (Hartree/Particle)
 Thermal correction to Energy=                    0.430593
 Thermal correction to Enthalpy=                  0.431537
 Thermal correction to Gibbs Free Energy=         0.358001
 Sum of electronic and zero-point Energies=           -904.895276
 Sum of electronic and thermal Energies=              -904.873648
 Sum of electronic and thermal Enthalpies=            -904.872704
 Sum of electronic and thermal Free Energies=         -904.946240

                     E (Thermal)             CV                S
                      KCal/Mol        Cal/Mol-Kelvin    Cal/Mol-Kelvin
 Total                  270.201             82.761            154.769
 Electronic               0.000              0.000              0.000
 Translational            0.889              2.981             42.714
 Rotational               0.889              2.981             33.649
 Vibrational            268.424             76.800             78.407
 Vibration     1          0.593              1.987              7.891
 Vibration     2          0.593              1.986              6.594
 Vibration     3          0.595              1.980              5.053
 Vibration     4          0.598              1.969              4.190
 Vibration     5          0.601              1.960              3.790
 Vibration     6          0.601              1.958              3.708
 Vibration     7          0.610              1.930              3.053
 Vibration     8          0.614              1.917              2.860
 Vibration     9          0.617              1.907              2.729
 Vibration    10          0.619              1.900              2.641
 Vibration    11          0.634              1.851              2.208
 Vibration    12          0.645              1.816              1.991
 Vibration    13          0.660              1.770              1.760
 Vibration    14          0.661              1.767              1.748
 Vibration    15          0.664              1.758              1.712
 Vibration    16          0.668              1.745              1.660
 Vibration    17          0.675              1.727              1.590
 Vibration    18          0.684              1.697              1.490
 Vibration    19          0.700              1.653              1.358
 Vibration    20          0.705              1.637              1.314
 Vibration    21          0.707              1.633              1.303
 Vibration    22          0.710              1.623              1.280
 Vibration    23          0.717              1.602              1.228
 Vibration    24          0.726              1.579              1.174
 Vibration    25          0.741              1.538              1.087
 Vibration    26          0.743              1.532              1.077
 Vibration    27          0.746              1.523              1.059
 Vibration    28          0.767              1.467              0.957
 Vibration    29          0.783              1.425              0.890
 Vibration    30          0.803              1.376              0.817
 Vibration    31          0.815              1.345              0.775
 Vibration    32          0.839              1.289              0.703
 Vibration    33          0.863              1.232              0.638
 Vibration    34          0.891              1.171              0.575
 Vibration    35          0.915              1.119              0.525
 Vibration    36          0.938              1.072              0.483

                           ! Non-Optimized Parameters !
 Normal termination of Gaussian 16 at Wed Jan  8 01:58:34 2025.
