 Gaussian 16, Revision C.01,
 Gaussian 16:  ES64L-G16RevC.01  3-Jul-2019

 ----------------------------------
 #p M062X/DEF2TZVP opt freq pop=NBO
 ----------------------------------

 --------------------------
 data_set_12-nBA_dormant-40
 --------------------------
 Symbolic Z-matrix:
 Charge =  0 Multiplicity = 1

 SCF Done:  E(RM062X) =  -883.019633969     A.U. after   15 cycles
 SCF Done:  E(RM062X) =  -883.028802463     A.U. after   14 cycles
 SCF Done:  E(RM062X) =  -883.028253987     A.U. after   14 cycles
 SCF Done:  E(RM062X) =  -883.025419565     A.U. after   14 cycles
 SCF Done:  E(RM062X) =  -883.023726346     A.U. after   14 cycles
 SCF Done:  E(RM062X) =  -883.029007945     A.U. after   10 cycles
 SCF Done:  E(RM062X) =  -883.029575427     A.U. after   13 cycles
 SCF Done:  E(RM062X) =  -883.029438325     A.U. after   13 cycles
 SCF Done:  E(RM062X) =  -883.029780400     A.U. after   12 cycles
 SCF Done:  E(RM062X) =  -883.029836000     A.U. after   13 cycles
 SCF Done:  E(RM062X) =  -883.029949734     A.U. after   11 cycles
 SCF Done:  E(RM062X) =  -883.029962153     A.U. after   12 cycles
 SCF Done:  E(RM062X) =  -883.029971634     A.U. after   11 cycles
 SCF Done:  E(RM062X) =  -883.029981134     A.U. after   12 cycles
 SCF Done:  E(RM062X) =  -883.029984517     A.U. after   10 cycles
 SCF Done:  E(RM062X) =  -883.029985106     A.U. after   10 cycles
 SCF Done:  E(RM062X) =  -883.029985279     A.U. after   10 cycles
 SCF Done:  E(RM062X) =  -883.029985304     A.U. after    7 cycles
 SCF Done:  E(RM062X) =  -883.029985316     A.U. after    7 cycles
 Optimization completed.
    -- Stationary point found.
 Normal termination of Gaussian 16 at Wed Jan  8 09:19:13 2025.

 --------------------------------------------------------------------
 #P Geom=AllCheck Guess=TCheck SCRF=Check GenChk RM062X/def2TZVP Freq
 --------------------------------------------------------------------

 Structure from the checkpoint file:  "outputs/data_set_12-nBA_dormant-40.chk"
 --------------------------
 data_set_12-nBA_dormant-40
 --------------------------
 Charge =  0 Multiplicity = 1

                         Standard orientation:
 ---------------------------------------------------------------------
 Center     Atomic      Atomic             Coordinates (Angstroms)
 Number     Number       Type             X           Y           Z
 ---------------------------------------------------------------------
      1          6           0        1.054214    2.837591   -0.678739
      2          6           0        1.283337    1.348474   -0.567173
      3          6           0        2.672966    1.042734   -0.012794
      4          8           0        3.447123    1.863546    0.390473
      5          8           0        2.932057   -0.267472   -0.053886
      6          6           0        4.208995   -0.672420    0.461810
      7          6           0        4.297173   -2.172504    0.324480
      8          8           0        0.361072    0.716513    0.316944
      9          7           0       -0.734195    0.169693   -0.372243
     10          6           0       -0.688284   -1.324644   -0.380761
     11          6           0       -2.186011   -1.704568   -0.392534
     12          6           0       -2.933070   -0.365333   -0.516544
     13          6           0       -2.010467    0.636090    0.205705
     14          6           0       -2.294372    2.068884   -0.210308
     15          6           0       -2.110945    0.515426    1.728808
     16          6           0        0.035017   -1.928124    0.822335
     17          6           0        0.015548   -1.772709   -1.658851
     18          6           0       -4.285847   -0.393912    0.025698
     19          7           0       -5.343965   -0.414044    0.466954
     20          1           0        1.853259    3.296284   -1.260244
     21          1           0        1.052203    3.290789    0.312119
     22          1           0        0.103627    3.029520   -1.171311
     23          1           0        1.207342    0.867942   -1.544990
     24          1           0        4.282645   -0.348582    1.500722
     25          1           0        4.990097   -0.160836   -0.101977
     26          1           0        3.510550   -2.660642    0.899407
     27          1           0        5.261354   -2.521113    0.694022
     28          1           0        4.199006   -2.469596   -0.719490
     29          1           0       -2.463579   -2.197980    0.538557
     30          1           0       -2.434281   -2.378341   -1.210977
     31          1           0       -2.996611   -0.068321   -1.565816
     32          1           0       -2.148589    2.192531   -1.284006
     33          1           0       -1.631581    2.753737    0.319102
     34          1           0       -3.323201    2.331396    0.042788
     35          1           0       -2.181941   -0.517719    2.064918
     36          1           0       -3.002944    1.035607    2.078473
     37          1           0       -1.236018    0.974639    2.187472
     38          1           0        1.094580   -1.683497    0.788767
     39          1           0       -0.075520   -3.013812    0.787578
     40          1           0       -0.367849   -1.571533    1.768108
     41          1           0       -0.483871   -1.358288   -2.535842
     42          1           0        0.011695   -2.862118   -1.732221
     43          1           0        1.055205   -1.440217   -1.653162
 ---------------------------------------------------------------------

 SCF Done:  E(RM062X) =  -883.029985316     A.U. after    1 cycles

 The electronic state is 1-A.
 Alpha  occ. eigenvalues --  -19.68057 -19.67192 -19.62677 -14.80026 -14.74921
 Alpha  occ. eigenvalues --  -10.67690 -10.60961 -10.60321 -10.59525 -10.59050
 Alpha  occ. eigenvalues --  -10.58786 -10.57393 -10.55818 -10.54216 -10.53347
 Alpha  occ. eigenvalues --  -10.53152 -10.53111 -10.53047 -10.52717  -1.25114
 Alpha  occ. eigenvalues --   -1.21726  -1.15541  -1.03614  -1.01351  -0.92100
 Alpha  occ. eigenvalues --   -0.91273  -0.88392  -0.85668  -0.82961  -0.79803
 Alpha  occ. eigenvalues --   -0.78504  -0.77239  -0.75928  -0.71519  -0.67819
 Alpha  occ. eigenvalues --   -0.66335  -0.65187  -0.61391  -0.60116  -0.58869
 Alpha  occ. eigenvalues --   -0.57857  -0.57178  -0.56122  -0.54204  -0.53188
 Alpha  occ. eigenvalues --   -0.51852  -0.50738  -0.50278  -0.50033  -0.49469
 Alpha  occ. eigenvalues --   -0.48799  -0.47602  -0.47257  -0.47185  -0.46187
 Alpha  occ. eigenvalues --   -0.45329  -0.45078  -0.44560  -0.44014  -0.43876
 Alpha  occ. eigenvalues --   -0.43583  -0.43398  -0.42881  -0.42719  -0.42211
 Alpha  occ. eigenvalues --   -0.40999  -0.39536  -0.38568  -0.38362  -0.37925
 Alpha  occ. eigenvalues --   -0.36831  -0.34790  -0.30276
 Alpha virt. eigenvalues --    0.02904   0.04564   0.05797   0.06773   0.07334
 Alpha virt. eigenvalues --    0.07675   0.08333   0.08601   0.09485   0.09772
 Alpha virt. eigenvalues --    0.10633   0.10832   0.11147   0.11996   0.12944

 Mulliken charges:
               1
     1  C   -0.467642
     2  C   -0.033175
     3  C    0.378422
     4  O   -0.320898
     5  O   -0.265004
     6  C   -0.107429
     7  C   -0.425116
     8  O   -0.282089
     9  N   -0.014076
    10  C    0.061719
    11  C   -0.354552
    12  C   -0.098325
    13  C    0.119855
    14  C   -0.547884
    15  C   -0.482598
    16  C   -0.398783
    17  C   -0.462304
    18  C   -0.262444
    19  N    0.052985
    20  H    0.159619
    21  H    0.171030
    22  H    0.164923
    23  H    0.172154
    24  H    0.150862
    25  H    0.146428
    26  H    0.151845
    27  H    0.148999
    28  H    0.148461
    29  H    0.195944
    30  H    0.173724
    31  H    0.191130
    32  H    0.165577
    33  H    0.183585
    34  H    0.174406
    35  H    0.142899
    36  H    0.174453
    37  H    0.189653
    38  H    0.125649
    39  H    0.155286
    40  H    0.154233
    41  H    0.154183
    42  H    0.154803
    43  H    0.159490
 Sum of Mulliken charges =  -0.00000

 Dipole moment (field-independent basis, Debye):
    X=              3.5648    Y=             -1.8728    Z=             -1.7937  Tot=              4.4082
 Quadrupole moment (field-independent basis, Debye-Ang):
   XX=           -143.8246   YY=           -114.9685   ZZ=           -114.8298
   XY=            -11.3746   XZ=              4.0609   YZ=             -1.9259

  Exact polarizability:     213.722      -1.536     180.473      -3.362       0.938     147.596
 Approx polarizability:     229.614       4.691     211.619      -4.428       3.045     199.271

 Summary of Natural Population Analysis:

                                       Natural Population
                Natural  -----------------------------------------------
    Atom  No    Charge         Core      Valence    Rydberg      Total
 -----------------------------------------------------------------------
      C    1   -0.62521      1.99947     4.61252    0.01322     6.62521
      C    2    0.00845      1.99912     3.96891    0.02351     5.99155
      C    3    0.78297      1.99945     3.18308    0.03450     5.21703
      O    4   -0.58203      1.99975     6.55287    0.02941     8.58203
      O    5   -0.50730      1.99972     6.48328    0.02431     8.50730
      C    6   -0.07202      1.99931     4.05583    0.01688     6.07202
      C    7   -0.61902      1.99950     4.60839    0.01112     6.61902
      O    8   -0.39681      1.99978     6.37984    0.01719     8.39681
      N    9   -0.18607      1.99932     5.15330    0.03345     7.18607
      C   10    0.11355      1.99940     3.86785    0.01920     5.88645
      C   11   -0.38566      1.99934     4.37285    0.01347     6.38566
      C   12   -0.34526      1.99906     4.32902    0.01718     6.34526
      C   13    0.15217      1.99935     3.82893    0.01955     5.84783
      C   14   -0.61220      1.99940     4.59934    0.01346     6.61220
      C   15   -0.64588      1.99938     4.63235    0.01415     6.64588
      C   16   -0.62293      1.99939     4.61047    0.01307     6.62293
      C   17   -0.60401      1.99940     4.59245    0.01215     6.60401
      C   18    0.29133      1.99931     3.67583    0.03353     5.70867
      N   19   -0.31957      1.99962     5.28874    0.03121     7.31957
      H   20    0.22564      0.00000     0.77358    0.00077     0.77436
      H   21    0.22235      0.00000     0.77654    0.00110     0.77765
      H   22    0.21431      0.00000     0.78468    0.00101     0.78569
      H   23    0.20222      0.00000     0.79475    0.00303     0.79778
      H   24    0.18605      0.00000     0.81237    0.00158     0.81395
      H   25    0.18500      0.00000     0.81340    0.00160     0.81500
      H   26    0.21212      0.00000     0.78683    0.00105     0.78788
      H   27    0.21741      0.00000     0.78197    0.00062     0.78259
      H   28    0.21185      0.00000     0.78715    0.00101     0.78815
      H   29    0.22024      0.00000     0.77839    0.00137     0.77976
      H   30    0.22514      0.00000     0.77366    0.00120     0.77486
      H   31    0.25037      0.00000     0.74698    0.00265     0.74963
      H   32    0.21185      0.00000     0.78688    0.00126     0.78815
      H   33    0.22079      0.00000     0.77813    0.00108     0.77921
      H   34    0.22068      0.00000     0.77846    0.00086     0.77932
      H   35    0.20750      0.00000     0.79133    0.00117     0.79250
      H   36    0.22559      0.00000     0.77352    0.00089     0.77441
      H   37    0.23355      0.00000     0.76532    0.00114     0.76645
      H   38    0.22978      0.00000     0.76879    0.00144     0.77022
      H   39    0.20844      0.00000     0.79082    0.00074     0.79156
      H   40    0.21236      0.00000     0.78663    0.00100     0.78764
      H   41    0.20882      0.00000     0.79012    0.00106     0.79118
      H   42    0.20675      0.00000     0.79237    0.00088     0.79325
      H   43    0.21668      0.00000     0.78217    0.00115     0.78332
 =======================================================================
   * Total *   -0.00000     37.98908   107.59068    0.42024   146.00000

                      1                      2                      3
                      A                      A                      A
 Frequencies --     12.9403                26.5632                54.9116
 Red. masses --      3.7332                 4.0741                 5.1647
 Frc consts  --      0.0004                 0.0017                 0.0092
 IR Inten    --      0.1297                 1.2375                 1.4771

                      4                      5                      6
                      A                      A                      A
 Frequencies --     74.9493                81.4332                95.7078
 Red. masses --      2.9352                 4.2659                 2.8963
 Frc consts  --      0.0097                 0.0167                 0.0156
 IR Inten    --      0.1963                 0.7226                 2.9342

                      7                      8                      9
                      A                      A                      A
 Frequencies --    100.3810               132.8858               147.0692
 Red. masses --      4.2443                 2.8440                 3.9241
 Frc consts  --      0.0252                 0.0296                 0.0500
 IR Inten    --      1.6847                 5.3672                 1.1432

                     10                     11                     12
                      A                      A                      A
 Frequencies --    169.6042               206.0010               207.5018
 Red. masses --      2.6304                 2.8863                 2.9746
 Frc consts  --      0.0446                 0.0722                 0.0755
 IR Inten    --      1.3788                 1.8621                 3.0627

                     13                     14                     15
                      A                      A                      A
 Frequencies --    227.8274               249.1100               251.1845
 Red. masses --      1.7894                 1.3056                 1.2678
 Frc consts  --      0.0547                 0.0477                 0.0471
 IR Inten    --      1.0866                 0.2458                 1.0630

                     16                     17                     18
                      A                      A                      A
 Frequencies --    263.3945               266.4993               289.1649
 Red. masses --      1.4969                 1.3314                 2.1345
 Frc consts  --      0.0612                 0.0557                 0.1052
 IR Inten    --      0.7978                 0.3304                 1.1606

                     19                     20                     21
                      A                      A                      A
 Frequencies --    305.5946               316.8840               319.0332
 Red. masses --      1.8146                 1.5163                 1.7730
 Frc consts  --      0.0998                 0.0897                 0.1063
 IR Inten    --      0.5941                 0.2279                 2.1891

                     22                     23                     24
                      A                      A                      A
 Frequencies --    335.9997               337.7865               356.7183
 Red. masses --      2.3441                 1.6908                 2.2475
 Frc consts  --      0.1559                 0.1137                 0.1685
 IR Inten    --      1.3862                 2.8455                 0.7716

                     25                     26                     27
                      A                      A                      A
 Frequencies --    364.7229               370.6600               407.1400
 Red. masses --      3.3685                 2.6438                 3.5188
 Frc consts  --      0.2640                 0.2140                 0.3437
 IR Inten    --      7.6665                 2.1518                 2.2889

                     28                     29                     30
                      A                      A                      A
 Frequencies --    415.9383               425.9009               469.5160
 Red. masses --      3.0219                 2.8215                 3.9940
 Frc consts  --      0.3080                 0.3015                 0.5188
 IR Inten    --      0.6854                 0.0664                 1.3451

                     31                     32                     33
                      A                      A                      A
 Frequencies --    500.2221               510.4611               566.8726
 Red. masses --      5.1367                 3.6739                 3.7750
 Frc consts  --      0.7573                 0.5640                 0.7147
 IR Inten    --      3.0971                 9.8385                 1.4428

                     34                     35                     36
                      A                      A                      A
 Frequencies --    585.4845               593.7559               629.8826
 Red. masses --      3.4673                 3.3083                 3.5454
 Frc consts  --      0.7003                 0.6872                 0.8288
 IR Inten    --      8.0965                 0.8919                 4.6488

                     37                     38                     39
                      A                      A                      A
 Frequencies --    686.5549               746.0684               777.3392
 Red. masses --      3.2485                 5.1444                 2.9897
 Frc consts  --      0.9021                 1.6871                 1.0644
 IR Inten    --      2.4905                 2.5344                 0.1749

                     40                     41                     42
                      A                      A                      A
 Frequencies --    811.0644               821.2599               880.2964
 Red. masses --      1.4591                 2.1549                 2.5355
 Frc consts  --      0.5655                 0.8563                 1.1576
 IR Inten    --      8.5096                 7.8149                 3.9469

                     43                     44                     45
                      A                      A                      A
 Frequencies --    893.8036               907.1751               913.1317
 Red. masses --      2.5039                 2.2431                 2.0538
 Frc consts  --      1.1785                 1.0876                 1.0090
 IR Inten    --     14.3145                 0.9341                 1.4816

                     46                     47                     48
                      A                      A                      A
 Frequencies --    949.2176               954.5551               959.5665
 Red. masses --      1.7825                 2.2261                 1.8041
 Frc consts  --      0.9463                 1.1951                 0.9787
 IR Inten    --      0.5998                 0.6326                 2.2306

                     49                     50                     51
                      A                      A                      A
 Frequencies --    967.8291               988.5114              1019.0588
 Red. masses --      1.4021                 1.8115                 1.3297
 Frc consts  --      0.7738                 1.0429                 0.8136
 IR Inten    --      0.8678                 1.7203                 0.1985

                     52                     53                     54
                      A                      A                      A
 Frequencies --   1030.9289              1034.6764              1069.0631
 Red. masses --      1.6099                 2.0276                 2.0075
 Frc consts  --      1.0081                 1.2789                 1.3518
 IR Inten    --      4.1267                 5.4644                 1.7623

                     55                     56                     57
                      A                      A                      A
 Frequencies --   1071.6767              1081.0154              1095.2364
 Red. masses --      2.4396                 2.7311                 1.9279
 Frc consts  --      1.6508                 1.8804                 1.3625
 IR Inten    --      0.7156                21.3786                21.9408

                     58                     59                     60
                      A                      A                      A
 Frequencies --   1117.3012              1136.9719              1147.8804
 Red. masses --      3.3905                 1.9539                 2.3587
 Frc consts  --      2.4937                 1.4881                 1.8312
 IR Inten    --     17.3905                42.8181                66.3642

                     61                     62                     63
                      A                      A                      A
 Frequencies --   1152.4892              1166.9782              1186.2123
 Red. masses --      2.4068                 3.1628                 1.5788
 Frc consts  --      1.8835                 2.5377                 1.3089
 IR Inten    --     47.3733                58.0159                 4.0111

                     64                     65                     66
                      A                      A                      A
 Frequencies --   1196.8592              1224.5950              1235.2017
 Red. masses --      2.2538                 2.3068                 3.0839
 Frc consts  --      1.9022                 2.0382                 2.7722
 IR Inten    --      2.2506                 1.6950                19.0324

                     67                     68                     69
                      A                      A                      A
 Frequencies --   1258.0623              1271.9659              1289.1356
 Red. masses --      2.6143                 2.2245                 2.5204
 Frc consts  --      2.4378                 2.1205                 2.4679
 IR Inten    --    316.5265                19.6708                 8.9543

                     70                     71                     72
                      A                      A                      A
 Frequencies --   1302.5673              1309.0938              1323.3767
 Red. masses --      2.2846                 1.0884                 1.7215
 Frc consts  --      2.2838                 1.0989                 1.7763
 IR Inten    --      4.4362                 1.6388                20.5046

                     73                     74                     75
                      A                      A                      A
 Frequencies --   1334.4794              1365.2244              1372.6638
 Red. masses --      1.7055                 1.2606                 1.6093
 Frc consts  --      1.7895                 1.3843                 1.7865
 IR Inten    --      8.1898                21.1442                 2.5577

                     76                     77                     78
                      A                      A                      A
 Frequencies --   1382.7192              1398.6229              1404.9806
 Red. masses --      1.5100                 1.3172                 1.3565
 Frc consts  --      1.7009                 1.5181                 1.5776
 IR Inten    --     60.5251                 4.9243                19.8494

                     79                     80                     81
                      A                      A                      A
 Frequencies --   1405.7153              1414.3117              1418.9017
 Red. masses --      1.3409                 1.3976                 1.3194
 Frc consts  --      1.5611                 1.6471                 1.5650
 IR Inten    --     58.5324                21.5303                 7.4988

                     82                     83                     84
                      A                      A                      A
 Frequencies --   1420.4012              1440.5499              1476.6267
 Red. masses --      1.2463                 1.6287                 1.0473
 Frc consts  --      1.4815                 1.9913                 1.3454
 IR Inten    --      5.4165                 0.4934                 0.6306

                     85                     86                     87
                      A                      A                      A
 Frequencies --   1481.9884              1484.5317              1487.4313
 Red. masses --      1.0601                 1.0474                 1.0587
 Frc consts  --      1.3718                 1.3600                 1.3800
 IR Inten    --      1.3417                 9.4925                 6.5089

                     88                     89                     90
                      A                      A                      A
 Frequencies --   1489.1875              1495.2891              1496.3572
 Red. masses --      1.0442                 1.0547                 1.0659
 Frc consts  --      1.3644                 1.3895                 1.4061
 IR Inten    --      4.4827                 4.3284                 5.4249

                     91                     92                     93
                      A                      A                      A
 Frequencies --   1499.7719              1501.3144              1508.8095
 Red. masses --      1.0513                 1.0597                 1.0582
 Frc consts  --      1.3933                 1.4072                 1.4193
 IR Inten    --      7.9236                 6.8216                 4.8937

                     94                     95                     96
                      A                      A                      A
 Frequencies --   1511.2314              1519.6241              1520.7589
 Red. masses --      1.0726                 1.0592                 1.0595
 Frc consts  --      1.4432                 1.4411                 1.4437
 IR Inten    --      6.0922                 6.1405                 2.9892

                     97                     98                     99
                      A                      A                      A
 Frequencies --   1526.5134              1857.3369              2413.2430
 Red. masses --      1.0900                12.2684                12.6711
 Frc consts  --      1.4965                24.9357                43.4777
 IR Inten    --      4.4004               289.3158                20.2300

                    100                    101                    102
                      A                      A                      A
 Frequencies --   3056.7950              3062.8150              3074.4906
 Red. masses --      1.0346                 1.0350                 1.0356
 Frc consts  --      5.6956                 5.7203                 5.7677
 IR Inten    --     14.6998                10.2586                10.5629

                    103                    104                    105
                      A                      A                      A
 Frequencies --   3076.7960              3080.7916              3084.6871
 Red. masses --      1.0401                 1.0382                 1.0366
 Frc consts  --      5.8012                 5.8059                 5.8113
 IR Inten    --     11.6402                 9.0675                 5.7507

                    106                    107                    108
                      A                      A                      A
 Frequencies --   3085.9970              3087.5593              3096.4850
 Red. masses --      1.0578                 1.0815                 1.0825
 Frc consts  --      5.9351                 6.0747                 6.1155
 IR Inten    --     15.3156                 0.3632                 7.5725

                    109                    110                    111
                      A                      A                      A
 Frequencies --   3100.4374              3125.2478              3132.2882
 Red. masses --      1.0612                 1.1076                 1.1019
 Frc consts  --      6.0105                 6.3741                 6.3696
 IR Inten    --     10.3602                 3.0586                14.7931

                    112                    113                    114
                      A                      A                      A
 Frequencies --   3138.0358              3140.3150              3146.9174
 Red. masses --      1.1024                 1.1036                 1.1052
 Frc consts  --      6.3961                 6.4124                 6.4486
 IR Inten    --     11.9325                12.3045                16.3427

                    115                    116                    117
                      A                      A                      A
 Frequencies --   3150.8542              3151.6407              3152.8824
 Red. masses --      1.1029                 1.1013                 1.1020
 Frc consts  --      6.4514                 6.4452                 6.4541
 IR Inten    --     12.1563                13.8265                15.4927

                    118                    119                    120
                      A                      A                      A
 Frequencies --   3155.7543              3156.6453              3160.0839
 Red. masses --      1.0980                 1.1047                 1.1022
 Frc consts  --      6.4424                 6.4854                 6.4849
 IR Inten    --     11.9340                20.8562                10.7735

                    121                    122                    123
                      A                      A                      A
 Frequencies --   3166.2274              3179.6361              3182.4053
 Red. masses --      1.1009                 1.1023                 1.1016
 Frc consts  --      6.5024                 6.5660                 6.5734
 IR Inten    --      5.5642                 6.5273                 6.0515

 - Thermochemistry -
 -------------------
 Temperature   298.150 Kelvin.  Pressure   1.00000 Atm.
 Atom     1 has atomic number  6 and mass  12.00000

 Molecular mass:   268.17869 amu.
 Principal axes and moments of inertia in atomic units:
                           1         2         3
     Eigenvalues --  2583.850407716.952169209.19512
           X            0.99971  -0.02423   0.00030
           Y            0.02424   0.99967  -0.00804
           Z           -0.00011   0.00804   0.99997
 This molecule is an asymmetric top.
 Rotational symmetry number  1.
 Warning -- assumption of classical behavior for rotation
           may cause significant error
 Rotational temperatures (Kelvin)      0.03352     0.01122     0.00941
 Rotational constants (GHZ):           0.69847     0.23387     0.19597
 Zero-point vibrational energy     982258.5 (Joules/Mol)
                                  234.76541 (Kcal/Mol)
 Warning -- explicit consideration of  35 degrees of freedom as
           vibrations may cause significant error
 Vibrational temperatures:     18.62    38.22    79.01   107.84   117.16
          (Kelvin)            137.70   144.43   191.19   211.60   244.02
                              296.39   298.55   327.79   358.41   361.40
                              378.97   383.43   416.04   439.68   455.93
                              459.02   483.43   486.00   513.24   524.75
                              533.30   585.78   598.44   612.78   675.53
                              719.71   734.44   815.60   842.38   854.28
                              906.26   987.80  1073.43  1118.42  1166.94
                             1181.61  1266.55  1285.98  1305.22  1313.79
                             1365.71  1373.39  1380.60  1392.49  1422.25
                             1466.20  1483.28  1488.67  1538.14  1541.90
                             1555.34  1575.80  1607.55  1635.85  1651.54
                             1658.17  1679.02  1706.69  1722.01  1761.92
                             1777.18  1810.07  1830.08  1854.78  1874.10
                             1883.49  1904.04  1920.02  1964.25  1974.96
                             1989.42  2012.31  2021.45  2022.51  2034.88
                             2041.48  2043.64  2072.63  2124.54  2132.25
                             2135.91  2140.08  2142.61  2151.39  2152.92
                             2157.84  2160.06  2170.84  2174.32  2186.40
                             2188.03  2196.31  2672.29  3472.12  4398.05
                             4406.71  4423.51  4426.82  4432.57  4438.18
                             4440.06  4442.31  4455.15  4460.84  4496.53
                             4506.66  4514.93  4518.21  4527.71  4533.38
                             4534.51  4536.29  4540.43  4541.71  4546.66
                             4555.50  4574.79  4578.77

 Zero-point correction=                           0.374122 (Hartree/Particle)
 Thermal correction to Energy=                    0.395200
 Thermal correction to Enthalpy=                  0.396144
 Thermal correction to Gibbs Free Energy=         0.324042
 Sum of electronic and zero-point Energies=           -882.655863
 Sum of electronic and thermal Energies=              -882.634785
 Sum of electronic and thermal Enthalpies=            -882.633841
 Sum of electronic and thermal Free Energies=         -882.705943

                     E (Thermal)             CV                S
                      KCal/Mol        Cal/Mol-Kelvin    Cal/Mol-Kelvin
 Total                  247.992             79.721            151.752
 Electronic               0.000              0.000              0.000
 Translational            0.889              2.981             42.659
 Rotational               0.889              2.981             33.573
 Vibrational            246.214             73.759             75.520
 Vibration     1          0.593              1.987              7.499
 Vibration     2          0.593              1.984              6.071
 Vibration     3          0.596              1.976              4.632
 Vibration     4          0.599              1.966              4.019
 Vibration     5          0.600              1.962              3.856
 Vibration     6          0.603              1.952              3.540
 Vibration     7          0.604              1.949              3.447
 Vibration     8          0.613              1.920              2.904
 Vibration     9          0.617              1.906              2.710
 Vibration    10          0.625              1.880              2.440
 Vibration    11          0.640              1.831              2.079
 Vibration    12          0.641              1.829              2.066
 Vibration    13          0.651              1.799              1.896
 Vibration    14          0.662              1.764              1.737
 Vibration    15          0.663              1.761              1.722
 Vibration    16          0.670              1.740              1.639
 Vibration    17          0.672              1.735              1.619
 Vibration    18          0.686              1.694              1.479
 Vibration    19          0.696              1.663              1.386
 Vibration    20          0.704              1.641              1.326
 Vibration    21          0.705              1.637              1.315
 Vibration    22          0.717              1.604              1.231
 Vibration    23          0.718              1.600              1.223
 Vibration    24          0.732              1.561              1.136
 Vibration    25          0.738              1.545              1.102
 Vibration    26          0.743              1.532              1.077
 Vibration    27          0.772              1.455              0.937
 Vibration    28          0.779              1.436              0.906
 Vibration    29          0.788              1.414              0.872
 Vibration    30          0.827              1.318              0.739
 Vibration    31          0.856              1.250              0.658
 Vibration    32          0.866              1.227              0.632
 Vibration    33          0.923              1.103              0.510
 Vibration    34          0.942              1.063              0.475
 Vibration    35          0.951              1.045              0.461

 Optimization completed.
    -- Stationary point found.
 Normal termination of Gaussian 16 at Wed Jan  8 11:28:33 2025.
